<?xml version="1.0" encoding="UTF-8"?>

<!-- generated on 2025-02-20 21:45:43 by Eclipse SUMO sumo Version 1.20.0
<configuration xmlns:xsi="http://www.w3.org/2001/XMLSchema-instance" xsi:noNamespaceSchemaLocation="http://sumo.dlr.de/xsd/sumoConfiguration.xsd">

    <input>
        <net-file value="osm.net.xml.gz"/>
        <route-files value="osm.passenger.trips.xml"/>
        <additional-files value="osm.poly.xml.gz"/>
    </input>

    <output>
        <fcd-output value="sumoTrace.xml"/>
        <queue-output value="queue-output.xml"/>
        <summary-output value="summary.xml"/>
        <tripinfo-output value="tripinfo.xml"/>
    </output>

    <processing>
        <ignore-route-errors value="true"/>
        <tls.actuated.jam-threshold value="30"/>
    </processing>

    <routing>
        <device.rerouting.adaptation-steps value="18"/>
        <device.rerouting.adaptation-interval value="10"/>
    </routing>

    <report>
        <verbose value="true"/>
        <duration-log.statistics value="true"/>
        <no-step-log value="true"/>
    </report>

    <gui_only>
        <gui-settings-file value="osm.view.xml"/>
    </gui_only>

</configuration>
-->

<tripinfos xmlns:xsi="http://www.w3.org/2001/XMLSchema-instance" xsi:noNamespaceSchemaLocation="http://sumo.dlr.de/xsd/tripinfo_file.xsd">
    <tripinfo id="veh1" depart="28.00" departLane="6333764#4_0" departPos="5.10" departSpeed="0.00" departDelay="0.66" arrival="112.00" arrivalLane="-698994093#2_0" arrivalPos="32.06" arrivalSpeed="10.36" duration="84.00" routeLength="710.85" waitingTime="3.00" waitingCount="1" stopTime="0.00" timeLoss="14.40" rerouteNo="1" devices="tripinfo_veh1 routing_veh1 fcd_veh1" vType="veh_passenger" speedFactor="0.94" vaporized=""/>
    <tripinfo id="veh0" depart="0.00" departLane="415878803#0_0" departPos="5.10" departSpeed="10.99" departDelay="0.00" arrival="116.00" arrivalLane="43256407#0_1" arrivalPos="12.88" arrivalSpeed="10.00" duration="116.00" routeLength="732.28" waitingTime="28.00" waitingCount="5" stopTime="0.00" timeLoss="52.97" rerouteNo="1" devices="tripinfo_veh0 routing_veh0 fcd_veh0" vType="veh_passenger" speedFactor="1.06" vaporized=""/>
    <tripinfo id="veh3" depart="83.00" departLane="1305513171#0_0" departPos="5.10" departSpeed="0.00" departDelay="0.98" arrival="179.00" arrivalLane="21452694#4_1" arrivalPos="15.11" arrivalSpeed="11.50" duration="96.00" routeLength="931.49" waitingTime="0.00" waitingCount="0" stopTime="0.00" timeLoss="18.14" rerouteNo="1" devices="tripinfo_veh3 routing_veh3 fcd_veh3" vType="veh_passenger" speedFactor="1.08" vaporized=""/>
    <tripinfo id="veh5" depart="137.00" departLane="415876778#0_2" departPos="5.10" departSpeed="0.00" departDelay="0.29" arrival="312.00" arrivalLane="21456366#3_1" arrivalPos="0.99" arrivalSpeed="9.01" duration="175.00" routeLength="1334.51" waitingTime="8.00" waitingCount="2" stopTime="0.00" timeLoss="29.02" rerouteNo="1" devices="tripinfo_veh5 routing_veh5 fcd_veh5" vType="veh_passenger" speedFactor="0.83" vaporized=""/>
    <tripinfo id="veh9" depart="247.00" departLane="698994093#1_0" departPos="5.10" departSpeed="0.00" departDelay="0.93" arrival="327.00" arrivalLane="196779226#8_0" arrivalPos="182.79" arrivalSpeed="8.29" duration="80.00" routeLength="646.77" waitingTime="1.00" waitingCount="1" stopTime="0.00" timeLoss="10.88" rerouteNo="1" devices="tripinfo_veh9 routing_veh9 fcd_veh9" vType="veh_passenger" speedFactor="0.86" vaporized=""/>
    <tripinfo id="veh8" depart="219.00" departLane="196779226#16_0" departPos="5.10" departSpeed="0.00" departDelay="0.27" arrival="345.00" arrivalLane="1164791347#0_0" arrivalPos="6.91" arrivalSpeed="9.94" duration="126.00" routeLength="1054.25" waitingTime="3.00" waitingCount="2" stopTime="0.00" timeLoss="23.66" rerouteNo="1" devices="tripinfo_veh8 routing_veh8 fcd_veh8" vType="veh_passenger" speedFactor="0.94" vaporized=""/>
    <tripinfo id="veh10" depart="274.00" departLane="-698994081#4_0" departPos="5.10" departSpeed="0.00" departDelay="0.58" arrival="349.00" arrivalLane="-698994093#5_0" arrivalPos="50.00" arrivalSpeed="11.97" duration="75.00" routeLength="772.37" waitingTime="0.00" waitingCount="0" stopTime="0.00" timeLoss="9.67" rerouteNo="1" devices="tripinfo_veh10 routing_veh10 fcd_veh10" vType="veh_passenger" speedFactor="1.09" vaporized=""/>
    <tripinfo id="veh2" depart="55.00" departLane="196779231_0" departPos="5.10" departSpeed="0.00" departDelay="0.32" arrival="363.00" arrivalLane="-541335494#3_0" arrivalPos="22.98" arrivalSpeed="11.17" duration="308.00" routeLength="39.86" waitingTime="301.00" waitingCount="1" stopTime="0.00" timeLoss="304.59" rerouteNo="0" devices="tripinfo_veh2 routing_veh2 fcd_veh2" vType="veh_passenger" speedFactor="1.01" vaporized=""/>
    <tripinfo id="veh11" depart="301.00" departLane="541335494#0_0" departPos="5.10" departSpeed="0.00" departDelay="0.24" arrival="365.00" arrivalLane="21458298#1_0" arrivalPos="10.27" arrivalSpeed="10.51" duration="64.00" routeLength="506.50" waitingTime="4.00" waitingCount="2" stopTime="0.00" timeLoss="18.16" rerouteNo="1" devices="tripinfo_veh11 routing_veh11 fcd_veh11" vType="veh_passenger" speedFactor="1.03" vaporized=""/>
    <tripinfo id="veh7" depart="192.00" departLane="517593873#4_1" departPos="5.10" departSpeed="0.00" departDelay="0.61" arrival="367.00" arrivalLane="-1248973830_0" arrivalPos="89.75" arrivalSpeed="9.18" duration="175.00" routeLength="1370.48" waitingTime="11.00" waitingCount="1" stopTime="0.00" timeLoss="32.01" rerouteNo="1" devices="tripinfo_veh7 routing_veh7 fcd_veh7" vType="veh_passenger" speedFactor="0.89" vaporized=""/>
    <tripinfo id="veh4" depart="110.00" departLane="-520143472#1_0" departPos="5.10" departSpeed="0.60" departDelay="0.63" arrival="420.00" arrivalLane="188434143#0_0" arrivalPos="80.40" arrivalSpeed="11.21" duration="310.00" routeLength="81.00" waitingTime="301.00" waitingCount="1" stopTime="0.00" timeLoss="303.30" rerouteNo="0" devices="tripinfo_veh4 routing_veh4 fcd_veh4" vType="veh_passenger" speedFactor="1.03" vaporized=""/>
    <tripinfo id="veh13" depart="356.00" departLane="541334899#1_1" departPos="5.10" departSpeed="0.00" departDelay="0.56" arrival="428.00" arrivalLane="27877606#4_0" arrivalPos="32.25" arrivalSpeed="11.41" duration="72.00" routeLength="791.81" waitingTime="0.00" waitingCount="0" stopTime="0.00" timeLoss="7.93" rerouteNo="1" devices="tripinfo_veh13 routing_veh13 fcd_veh13" vType="veh_passenger" speedFactor="1.12" vaporized=""/>
    <tripinfo id="veh6" depart="165.00" departLane="1310995734_0" departPos="5.10" departSpeed="0.00" departDelay="0.95" arrival="471.00" arrivalLane="21458298#1_0" arrivalPos="10.27" arrivalSpeed="11.25" duration="306.00" routeLength="14.34" waitingTime="301.00" waitingCount="1" stopTime="0.00" timeLoss="304.69" rerouteNo="0" devices="tripinfo_veh6 routing_veh6 fcd_veh6" vType="veh_passenger" speedFactor="1.05" vaporized=""/>
    <tripinfo id="veh12" depart="329.00" departLane="517593873#3_1" departPos="5.10" departSpeed="0.00" departDelay="0.90" arrival="473.00" arrivalLane="541334899#1_0" arrivalPos="35.72" arrivalSpeed="11.36" duration="144.00" routeLength="1346.03" waitingTime="2.00" waitingCount="1" stopTime="0.00" timeLoss="26.03" rerouteNo="1" devices="tripinfo_veh12 routing_veh12 fcd_veh12" vType="veh_passenger" speedFactor="1.05" vaporized=""/>
    <tripinfo id="veh14" depart="383.00" departLane="415876786#0_0" departPos="5.10" departSpeed="11.08" departDelay="0.22" arrival="535.00" arrivalLane="-541335494#9_0" arrivalPos="39.84" arrivalSpeed="10.63" duration="152.00" routeLength="1177.43" waitingTime="22.00" waitingCount="4" stopTime="0.00" timeLoss="44.74" rerouteNo="1" devices="tripinfo_veh14 routing_veh14 fcd_veh14" vType="veh_passenger" speedFactor="0.99" vaporized=""/>
    <tripinfo id="veh17" depart="465.00" departLane="279321232#0_2" departPos="5.10" departSpeed="0.00" departDelay="0.19" arrival="539.00" arrivalLane="201989362#1_1" arrivalPos="1.97" arrivalSpeed="10.31" duration="74.00" routeLength="555.88" waitingTime="9.00" waitingCount="1" stopTime="0.00" timeLoss="20.21" rerouteNo="1" devices="tripinfo_veh17 routing_veh17 fcd_veh17" vType="veh_passenger" speedFactor="0.94" vaporized=""/>
    <tripinfo id="veh18" depart="493.00" departLane="195433863#3_1" departPos="5.10" departSpeed="0.00" departDelay="0.85" arrival="561.00" arrivalLane="698994093#0_0" arrivalPos="18.29" arrivalSpeed="7.26" duration="68.00" routeLength="512.99" waitingTime="1.00" waitingCount="1" stopTime="0.00" timeLoss="16.87" rerouteNo="1" devices="tripinfo_veh18 routing_veh18 fcd_veh18" vType="veh_passenger" speedFactor="0.94" vaporized=""/>
    <tripinfo id="veh21" depart="575.00" departLane="193256682#0_0" departPos="1.01" departSpeed="0.00" departDelay="0.83" arrival="578.00" arrivalLane="-541335494#4_0" arrivalPos="34.81" arrivalSpeed="10.68" duration="3.00" routeLength="34.81" waitingTime="0.00" waitingCount="0" stopTime="0.00" timeLoss="0.15" rerouteNo="0" devices="tripinfo_veh21 routing_veh21 fcd_veh21" vType="veh_passenger" speedFactor="1.01" vaporized=""/>
    <tripinfo id="veh19" depart="520.00" departLane="21456366#0_1" departPos="5.10" departSpeed="0.00" departDelay="0.51" arrival="583.00" arrivalLane="517593872#1_1" arrivalPos="12.71" arrivalSpeed="12.35" duration="63.00" routeLength="729.26" waitingTime="0.00" waitingCount="0" stopTime="0.00" timeLoss="6.65" rerouteNo="1" devices="tripinfo_veh19 routing_veh19 fcd_veh19" vType="veh_passenger" speedFactor="1.16" vaporized=""/>
    <tripinfo id="veh16" depart="438.00" departLane="-6360234#1_0" departPos="0.20" departSpeed="0.00" departDelay="0.54" arrival="630.00" arrivalLane="196779219_1" arrivalPos="8.28" arrivalSpeed="9.64" duration="192.00" routeLength="1482.42" waitingTime="9.00" waitingCount="3" stopTime="0.00" timeLoss="37.97" rerouteNo="1" devices="tripinfo_veh16 routing_veh16 fcd_veh16" vType="veh_passenger" speedFactor="0.88" vaporized=""/>
    <tripinfo id="veh20" depart="547.00" departLane="541334900#4_0" departPos="5.10" departSpeed="0.00" departDelay="0.17" arrival="692.00" arrivalLane="559523722#1_1" arrivalPos="28.11" arrivalSpeed="10.71" duration="145.00" routeLength="1180.64" waitingTime="11.00" waitingCount="3" stopTime="0.00" timeLoss="38.88" rerouteNo="1" devices="tripinfo_veh20 routing_veh20 fcd_veh20" vType="veh_passenger" speedFactor="1.02" vaporized=""/>
    <tripinfo id="veh15" depart="411.00" departLane="193256682#0_0" departPos="1.01" departSpeed="0.00" departDelay="0.88" arrival="716.00" arrivalLane="196779226#16_0" arrivalPos="43.02" arrivalSpeed="9.59" duration="305.00" routeLength="43.02" waitingTime="301.00" waitingCount="1" stopTime="0.00" timeLoss="301.17" rerouteNo="0" devices="tripinfo_veh15 routing_veh15 fcd_veh15" vType="veh_passenger" speedFactor="0.93" vaporized=""/>
    <tripinfo id="veh24" depart="657.00" departLane="21456366#5_1" departPos="5.10" departSpeed="0.00" departDelay="0.80" arrival="719.00" arrivalLane="679682614_1" arrivalPos="47.44" arrivalSpeed="8.19" duration="62.00" routeLength="429.21" waitingTime="6.00" waitingCount="1" stopTime="0.00" timeLoss="14.63" rerouteNo="1" devices="tripinfo_veh24 routing_veh24 fcd_veh24" vType="veh_passenger" speedFactor="0.83" vaporized=""/>
    <tripinfo id="veh23" depart="629.00" departLane="6333764#1_0" departPos="5.10" departSpeed="0.00" departDelay="0.14" arrival="764.00" arrivalLane="196779226#4_1" arrivalPos="12.15" arrivalSpeed="8.89" duration="135.00" routeLength="1115.32" waitingTime="0.00" waitingCount="0" stopTime="0.00" timeLoss="20.23" rerouteNo="1" devices="tripinfo_veh23 routing_veh23 fcd_veh23" vType="veh_passenger" speedFactor="0.89" vaporized=""/>
    <tripinfo id="veh22" depart="602.00" departLane="1305513149_1" departPos="5.10" departSpeed="0.00" departDelay="0.49" arrival="766.00" arrivalLane="698994093#2_0" arrivalPos="32.06" arrivalSpeed="10.22" duration="164.00" routeLength="1205.14" waitingTime="22.00" waitingCount="3" stopTime="0.00" timeLoss="51.16" rerouteNo="1" devices="tripinfo_veh22 routing_veh22 fcd_veh22" vType="veh_passenger" speedFactor="0.97" vaporized=""/>
    <tripinfo id="veh26" depart="711.00" departLane="-698994091#1_0" departPos="3.15" departSpeed="0.00" departDelay="0.12" arrival="813.00" arrivalLane="279321232#0_2" arrivalPos="36.18" arrivalSpeed="9.04" duration="102.00" routeLength="795.06" waitingTime="4.00" waitingCount="1" stopTime="0.00" timeLoss="22.42" rerouteNo="1" devices="tripinfo_veh26 routing_veh26 fcd_veh26" vType="veh_passenger" speedFactor="0.92" vaporized=""/>
    <tripinfo id="veh28" depart="766.00" departLane="-6345181#3_0" departPos="5.10" departSpeed="0.00" departDelay="0.44" arrival="850.00" arrivalLane="201989362#12_0" arrivalPos="7.85" arrivalSpeed="11.79" duration="84.00" routeLength="903.76" waitingTime="0.00" waitingCount="0" stopTime="0.00" timeLoss="10.79" rerouteNo="1" devices="tripinfo_veh28 routing_veh28 fcd_veh28" vType="veh_passenger" speedFactor="1.13" vaporized=""/>
    <tripinfo id="veh30" depart="821.00" departLane="698994093#6_0" departPos="5.10" departSpeed="0.00" departDelay="0.75" arrival="888.00" arrivalLane="6360234#1_0" arrivalPos="0.20" arrivalSpeed="7.98" duration="67.00" routeLength="623.21" waitingTime="3.00" waitingCount="1" stopTime="0.00" timeLoss="18.52" rerouteNo="1" devices="tripinfo_veh30 routing_veh30 fcd_veh30" vType="veh_passenger" speedFactor="1.18" vaporized=""/>
    <tripinfo id="veh33" depart="903.00" departLane="195433863#3_1" departPos="5.10" departSpeed="0.00" departDelay="0.73" arrival="944.00" arrivalLane="415876778#0_1" arrivalPos="10.46" arrivalSpeed="12.41" duration="41.00" routeLength="450.42" waitingTime="0.00" waitingCount="0" stopTime="0.00" timeLoss="6.41" rerouteNo="1" devices="tripinfo_veh33 routing_veh33 fcd_veh33" vType="veh_passenger" speedFactor="1.17" vaporized=""/>
    <tripinfo id="veh29" depart="793.00" departLane="910274492_1" departPos="5.10" departSpeed="0.00" departDelay="0.09" arrival="958.00" arrivalLane="21456366#0_1" arrivalPos="11.77" arrivalSpeed="9.91" duration="165.00" routeLength="1239.74" waitingTime="16.00" waitingCount="4" stopTime="0.00" timeLoss="43.73" rerouteNo="1" devices="tripinfo_veh29 routing_veh29 fcd_veh29" vType="veh_passenger" speedFactor="0.93" vaporized=""/>
    <tripinfo id="veh31" depart="848.00" departLane="-27877606#1_0" departPos="5.10" departSpeed="0.00" departDelay="0.41" arrival="973.00" arrivalLane="541334786#0_0" arrivalPos="85.82" arrivalSpeed="11.85" duration="125.00" routeLength="1228.96" waitingTime="7.00" waitingCount="1" stopTime="0.00" timeLoss="27.83" rerouteNo="1" devices="tripinfo_veh31 routing_veh31 fcd_veh31" vType="veh_passenger" speedFactor="1.15" vaporized=""/>
    <tripinfo id="veh25" depart="684.00" departLane="196779228#0_0" departPos="5.10" departSpeed="6.22" departDelay="0.46" arrival="989.00" arrivalLane="195433864#0_0" arrivalPos="5.53" arrivalSpeed="8.50" duration="305.00" routeLength="13.47" waitingTime="301.00" waitingCount="1" stopTime="0.00" timeLoss="303.32" rerouteNo="0" devices="tripinfo_veh25 routing_veh25 fcd_veh25" vType="veh_passenger" speedFactor="0.87" vaporized=""/>
    <tripinfo id="veh32" depart="875.00" departLane="415876786#0_0" departPos="5.10" departSpeed="10.61" departDelay="0.07" arrival="992.00" arrivalLane="21456366#10_1" arrivalPos="30.85" arrivalSpeed="10.84" duration="117.00" routeLength="1048.69" waitingTime="6.00" waitingCount="2" stopTime="0.00" timeLoss="22.02" rerouteNo="1" devices="tripinfo_veh32 routing_veh32 fcd_veh32" vType="veh_passenger" speedFactor="1.01" vaporized=""/>
    <tripinfo id="veh27" depart="739.00" departLane="43256407#0_0" departPos="5.10" departSpeed="0.00" departDelay="0.78" arrival="1044.00" arrivalLane="201989362#3_0" arrivalPos="5.68" arrivalSpeed="10.60" duration="305.00" routeLength="13.46" waitingTime="301.00" waitingCount="1" stopTime="0.00" timeLoss="303.27" rerouteNo="0" devices="tripinfo_veh27 routing_veh27 fcd_veh27" vType="veh_passenger" speedFactor="0.95" vaporized=""/>
    <tripinfo id="veh35" depart="957.00" departLane="196779226#1_2" departPos="5.10" departSpeed="0.00" departDelay="0.05" arrival="1052.00" arrivalLane="415876778#0_1" arrivalPos="10.46" arrivalSpeed="10.87" duration="95.00" routeLength="822.34" waitingTime="5.00" waitingCount="1" stopTime="0.00" timeLoss="21.94" rerouteNo="1" devices="tripinfo_veh35 routing_veh35 fcd_veh35" vType="veh_passenger" speedFactor="1.02" vaporized=""/>
    <tripinfo id="veh36" depart="985.00" departLane="416108635#0_0" departPos="5.10" departSpeed="10.88" departDelay="0.70" arrival="1052.00" arrivalLane="21456366#10_1" arrivalPos="30.85" arrivalSpeed="10.05" duration="67.00" routeLength="637.45" waitingTime="0.00" waitingCount="0" stopTime="0.00" timeLoss="6.31" rerouteNo="1" devices="tripinfo_veh36 routing_veh36 fcd_veh36" vType="veh_passenger" speedFactor="0.97" vaporized=""/>
    <tripinfo id="veh37" depart="1012.00" departLane="416108635#0_0" departPos="5.10" departSpeed="13.19" departDelay="0.36" arrival="1062.00" arrivalLane="21456366#1_1" arrivalPos="39.12" arrivalSpeed="12.46" duration="50.00" routeLength="385.55" waitingTime="5.00" waitingCount="1" stopTime="0.00" timeLoss="19.57" rerouteNo="1" devices="tripinfo_veh37 routing_veh37 fcd_veh37" vType="veh_passenger" speedFactor="1.18" vaporized=""/>
    <tripinfo id="veh34" depart="930.00" departLane="-698994091#1_0" departPos="3.15" departSpeed="0.00" departDelay="0.39" arrival="1096.00" arrivalLane="201989362#5_1" arrivalPos="4.83" arrivalSpeed="10.13" duration="166.00" routeLength="1411.89" waitingTime="10.00" waitingCount="2" stopTime="0.00" timeLoss="36.87" rerouteNo="1" devices="tripinfo_veh34 routing_veh34 fcd_veh34" vType="veh_passenger" speedFactor="0.99" vaporized=""/>
    <tripinfo id="veh38" depart="1039.00" departLane="-27877606#5_0" departPos="5.10" departSpeed="0.00" departDelay="0.02" arrival="1136.00" arrivalLane="698994091#0_0" arrivalPos="3.13" arrivalSpeed="11.99" duration="97.00" routeLength="1008.87" waitingTime="0.00" waitingCount="0" stopTime="0.00" timeLoss="14.05" rerouteNo="1" devices="tripinfo_veh38 routing_veh38 fcd_veh38" vType="veh_passenger" speedFactor="1.10" vaporized=""/>
    <tripinfo id="veh39" depart="1067.00" departLane="6333764#1_1" departPos="5.10" departSpeed="0.00" departDelay="0.68" arrival="1193.00" arrivalLane="698994093#4_0" arrivalPos="54.96" arrivalSpeed="9.06" duration="126.00" routeLength="1079.56" waitingTime="1.00" waitingCount="1" stopTime="0.00" timeLoss="17.60" rerouteNo="1" devices="tripinfo_veh39 routing_veh39 fcd_veh39" vType="veh_passenger" speedFactor="0.90" vaporized=""/>
    <tripinfo id="veh41" depart="1121.00" departLane="416108635#0_0" departPos="5.10" departSpeed="9.60" departDelay="0.00" arrival="1194.00" arrivalLane="1080852438#2_0" arrivalPos="18.39" arrivalSpeed="10.50" duration="73.00" routeLength="595.33" waitingTime="2.00" waitingCount="1" stopTime="0.00" timeLoss="15.00" rerouteNo="1" devices="tripinfo_veh41 routing_veh41 fcd_veh41" vType="veh_passenger" speedFactor="0.96" vaporized=""/>
    <tripinfo id="veh40" depart="1094.00" departLane="-698796634#1_0" departPos="5.10" departSpeed="0.00" departDelay="0.34" arrival="1263.00" arrivalLane="21452694#4_1" arrivalPos="15.11" arrivalSpeed="11.20" duration="169.00" routeLength="1498.50" waitingTime="5.00" waitingCount="2" stopTime="0.00" timeLoss="38.25" rerouteNo="1" devices="tripinfo_veh40 routing_veh40 fcd_veh40" vType="veh_passenger" speedFactor="1.03" vaporized=""/>
    <tripinfo id="veh42" depart="1149.00" departLane="201989362#2_0" departPos="0.20" departSpeed="0.00" departDelay="0.65" arrival="1275.00" arrivalLane="21456366#4_1" arrivalPos="30.62" arrivalSpeed="11.89" duration="126.00" routeLength="1189.93" waitingTime="5.00" waitingCount="2" stopTime="0.00" timeLoss="27.17" rerouteNo="1" devices="tripinfo_veh42 routing_veh42 fcd_veh42" vType="veh_passenger" speedFactor="1.09" vaporized=""/>
    <tripinfo id="veh43" depart="1176.00" departLane="195433863#3_1" departPos="5.10" departSpeed="0.00" departDelay="0.31" arrival="1277.00" arrivalLane="6360234#1_0" arrivalPos="0.20" arrivalSpeed="7.46" duration="101.00" routeLength="986.87" waitingTime="0.00" waitingCount="0" stopTime="0.00" timeLoss="13.19" rerouteNo="1" devices="tripinfo_veh43 routing_veh43 fcd_veh43" vType="veh_passenger" speedFactor="1.04" vaporized=""/>
    <tripinfo id="veh49" depart="1340.00" departLane="193256682#0_0" departPos="1.01" departSpeed="0.00" departDelay="0.26" arrival="1341.00" arrivalLane="698994081#3_0" arrivalPos="3.49" arrivalSpeed="9.40" duration="1.00" routeLength="3.49" waitingTime="0.00" waitingCount="0" stopTime="0.00" timeLoss="0.01" rerouteNo="0" devices="tripinfo_veh49 routing_veh49 fcd_veh49" vType="veh_passenger" speedFactor="0.85" vaporized=""/>
    <tripinfo id="veh50" depart="1368.00" departLane="193256682#0_0" departPos="1.01" departSpeed="0.00" departDelay="0.92" arrival="1375.00" arrivalLane="416106321#0_0" arrivalPos="57.50" arrivalSpeed="9.02" duration="7.00" routeLength="57.50" waitingTime="0.00" waitingCount="0" stopTime="0.00" timeLoss="0.70" rerouteNo="0" devices="tripinfo_veh50 routing_veh50 fcd_veh50" vType="veh_passenger" speedFactor="0.85" vaporized=""/>
    <tripinfo id="veh44" depart="1204.00" departLane="196779231_0" departPos="5.10" departSpeed="0.00" departDelay="0.97" arrival="1512.00" arrivalLane="195433863#2_1" arrivalPos="11.22" arrivalSpeed="10.53" duration="308.00" routeLength="28.10" waitingTime="301.00" waitingCount="1" stopTime="0.00" timeLoss="305.65" rerouteNo="0" devices="tripinfo_veh44 routing_veh44 fcd_veh44" vType="veh_passenger" speedFactor="1.04" vaporized=""/>
    <tripinfo id="veh52" depart="1422.00" departLane="698994081#0_0" departPos="5.10" departSpeed="0.00" departDelay="0.24" arrival="1518.00" arrivalLane="21456366#8_1" arrivalPos="0.10" arrivalSpeed="6.77" duration="96.00" routeLength="661.05" waitingTime="14.00" waitingCount="3" stopTime="0.00" timeLoss="36.02" rerouteNo="1" devices="tripinfo_veh52 routing_veh52 fcd_veh52" vType="veh_passenger" speedFactor="1.02" vaporized=""/>
    <tripinfo id="veh48" depart="1313.00" departLane="-6360234#1_0" departPos="0.20" departSpeed="0.00" departDelay="0.61" arrival="1523.00" arrivalLane="30833030#1_0" arrivalPos="9.26" arrivalSpeed="9.07" duration="210.00" routeLength="1521.12" waitingTime="20.00" waitingCount="3" stopTime="0.00" timeLoss="52.12" rerouteNo="1" devices="tripinfo_veh48 routing_veh48 fcd_veh48" vType="veh_passenger" speedFactor="0.88" vaporized=""/>
    <tripinfo id="veh45" depart="1231.00" departLane="21452694#2_0" departPos="2.95" departSpeed="0.00" departDelay="0.63" arrival="1535.00" arrivalLane="541334899#1_0" arrivalPos="35.72" arrivalSpeed="11.66" duration="304.00" routeLength="35.72" waitingTime="301.00" waitingCount="1" stopTime="0.00" timeLoss="301.09" rerouteNo="0" devices="tripinfo_veh45 routing_veh45 fcd_veh45" vType="veh_passenger" speedFactor="1.09" vaporized=""/>
    <tripinfo id="veh53" depart="1450.00" departLane="517593873#3_1" departPos="5.10" departSpeed="0.00" departDelay="0.90" arrival="1542.00" arrivalLane="1305513171#0_0" arrivalPos="19.43" arrivalSpeed="12.23" duration="92.00" routeLength="866.35" waitingTime="1.00" waitingCount="1" stopTime="0.00" timeLoss="19.88" rerouteNo="1" devices="tripinfo_veh53 routing_veh53 fcd_veh53" vType="veh_passenger" speedFactor="1.10" vaporized=""/>
    <tripinfo id="veh46" depart="1258.00" departLane="-698994093#2_0" departPos="5.10" departSpeed="0.00" departDelay="0.29" arrival="1571.00" arrivalLane="195433864#2_0" arrivalPos="29.55" arrivalSpeed="10.77" duration="313.00" routeLength="56.51" waitingTime="301.00" waitingCount="1" stopTime="0.00" timeLoss="307.82" rerouteNo="0" devices="tripinfo_veh46 routing_veh46 fcd_veh46" vType="veh_passenger" speedFactor="1.00" vaporized=""/>
    <tripinfo id="veh58" depart="1586.00" departLane="193256682#0_0" departPos="1.01" departSpeed="0.00" departDelay="0.19" arrival="1587.00" arrivalLane="698994091#0_0" arrivalPos="3.13" arrivalSpeed="10.39" duration="1.00" routeLength="3.13" waitingTime="0.00" waitingCount="0" stopTime="0.00" timeLoss="0.09" rerouteNo="0" devices="tripinfo_veh58 routing_veh58 fcd_veh58" vType="veh_passenger" speedFactor="1.02" vaporized=""/>
    <tripinfo id="veh47" depart="1286.00" departLane="193256682#0_0" departPos="1.01" departSpeed="0.00" departDelay="0.95" arrival="1588.00" arrivalLane="195433864#0_0" arrivalPos="5.53" arrivalSpeed="9.30" duration="302.00" routeLength="5.53" waitingTime="301.00" waitingCount="1" stopTime="0.00" timeLoss="301.08" rerouteNo="0" devices="tripinfo_veh47 routing_veh47 fcd_veh47" vType="veh_passenger" speedFactor="0.90" vaporized=""/>
    <tripinfo id="veh55" depart="1504.00" departLane="541335494#7_0" departPos="5.10" departSpeed="0.00" departDelay="0.21" arrival="1623.00" arrivalLane="196779226#1_1" arrivalPos="45.76" arrivalSpeed="10.67" duration="119.00" routeLength="1030.29" waitingTime="4.00" waitingCount="1" stopTime="0.00" timeLoss="23.22" rerouteNo="1" devices="tripinfo_veh55 routing_veh55 fcd_veh55" vType="veh_passenger" speedFactor="1.00" vaporized=""/>
    <tripinfo id="veh54" depart="1477.00" departLane="-698994090#3_0" departPos="5.10" departSpeed="0.00" departDelay="0.56" arrival="1638.00" arrivalLane="201989362#4_1" arrivalPos="51.44" arrivalSpeed="10.65" duration="161.00" routeLength="1391.14" waitingTime="12.00" waitingCount="2" stopTime="0.00" timeLoss="35.10" rerouteNo="1" devices="tripinfo_veh54 routing_veh54 fcd_veh54" vType="veh_passenger" speedFactor="1.00" vaporized=""/>
    <tripinfo id="veh51" depart="1395.00" departLane="1305513170#0_0" departPos="5.10" departSpeed="0.00" departDelay="0.58" arrival="1709.00" arrivalLane="1087818838#1_1" arrivalPos="56.53" arrivalSpeed="12.40" duration="314.00" routeLength="92.13" waitingTime="301.00" waitingCount="1" stopTime="0.00" timeLoss="306.56" rerouteNo="0" devices="tripinfo_veh51 routing_veh51 fcd_veh51" vType="veh_passenger" speedFactor="1.17" vaporized=""/>
    <tripinfo id="veh56" depart="1532.00" departLane="1248973826_1" departPos="5.10" departSpeed="0.00" departDelay="0.87" arrival="1716.00" arrivalLane="201989362#7_1" arrivalPos="20.75" arrivalSpeed="9.05" duration="184.00" routeLength="1494.54" waitingTime="4.00" waitingCount="2" stopTime="0.00" timeLoss="31.95" rerouteNo="1" devices="tripinfo_veh56 routing_veh56 fcd_veh56" vType="veh_passenger" speedFactor="0.90" vaporized=""/>
    <tripinfo id="veh59" depart="1614.00" departLane="201989362#11_0" departPos="5.10" departSpeed="0.00" departDelay="0.85" arrival="1731.00" arrivalLane="6360234#1_0" arrivalPos="0.20" arrivalSpeed="7.36" duration="117.00" routeLength="939.86" waitingTime="5.00" waitingCount="2" stopTime="0.00" timeLoss="26.95" rerouteNo="1" devices="tripinfo_veh59 routing_veh59 fcd_veh59" vType="veh_passenger" speedFactor="0.97" vaporized=""/>
    <tripinfo id="veh60" depart="1641.00" departLane="21453126#4_0" departPos="5.10" departSpeed="0.00" departDelay="0.51" arrival="1734.00" arrivalLane="-6345181#2_0" arrivalPos="43.40" arrivalSpeed="11.43" duration="93.00" routeLength="888.70" waitingTime="1.00" waitingCount="1" stopTime="0.00" timeLoss="17.65" rerouteNo="1" devices="tripinfo_veh60 routing_veh60 fcd_veh60" vType="veh_passenger" speedFactor="1.08" vaporized=""/>
    <tripinfo id="veh62" depart="1696.00" departLane="698994093#6_0" departPos="5.10" departSpeed="0.00" departDelay="0.82" arrival="1759.00" arrivalLane="698994091#0_0" arrivalPos="3.13" arrivalSpeed="9.69" duration="63.00" routeLength="552.92" waitingTime="3.00" waitingCount="1" stopTime="0.00" timeLoss="14.17" rerouteNo="1" devices="tripinfo_veh62 routing_veh62 fcd_veh62" vType="veh_passenger" speedFactor="1.02" vaporized=""/>
    <tripinfo id="veh63" depart="1723.00" departLane="201989362#3_0" departPos="5.10" departSpeed="0.00" departDelay="0.48" arrival="1817.00" arrivalLane="195433863#3_1" arrivalPos="6.37" arrivalSpeed="10.78" duration="94.00" routeLength="748.57" waitingTime="3.00" waitingCount="3" stopTime="0.00" timeLoss="24.54" rerouteNo="1" devices="tripinfo_veh63 routing_veh63 fcd_veh63" vType="veh_passenger" speedFactor="0.99" vaporized=""/>
    <tripinfo id="veh61" depart="1668.00" departLane="910274492_1" departPos="5.10" departSpeed="0.00" departDelay="0.17" arrival="1840.00" arrivalLane="6333764#5_0" arrivalPos="17.43" arrivalSpeed="12.06" duration="172.00" routeLength="1447.13" waitingTime="21.00" waitingCount="3" stopTime="0.00" timeLoss="54.88" rerouteNo="1" devices="tripinfo_veh61 routing_veh61 fcd_veh61" vType="veh_passenger" speedFactor="1.12" vaporized=""/>
    <tripinfo id="veh64" depart="1750.00" departLane="196779228#0_1" departPos="5.10" departSpeed="10.48" departDelay="0.14" arrival="1862.00" arrivalLane="-6352335#1_0" arrivalPos="82.35" arrivalSpeed="9.76" duration="112.00" routeLength="786.95" waitingTime="16.00" waitingCount="2" stopTime="0.00" timeLoss="34.56" rerouteNo="1" devices="tripinfo_veh64 routing_veh64 fcd_veh64" vType="veh_passenger" speedFactor="0.94" vaporized=""/>
    <tripinfo id="veh57" depart="1559.00" departLane="196779231_0" departPos="5.10" departSpeed="0.00" departDelay="0.53" arrival="1868.00" arrivalLane="196779226#14_0" arrivalPos="33.26" arrivalSpeed="12.67" duration="309.00" routeLength="50.14" waitingTime="301.00" waitingCount="1" stopTime="0.00" timeLoss="304.82" rerouteNo="0" devices="tripinfo_veh57 routing_veh57 fcd_veh57" vType="veh_passenger" speedFactor="1.14" vaporized=""/>
    <tripinfo id="veh66" depart="1805.00" departLane="195433863#3_1" departPos="5.10" departSpeed="0.00" departDelay="0.46" arrival="1893.00" arrivalLane="617930718_1" arrivalPos="75.05" arrivalSpeed="9.48" duration="88.00" routeLength="766.90" waitingTime="0.00" waitingCount="0" stopTime="0.00" timeLoss="12.31" rerouteNo="1" devices="tripinfo_veh66 routing_veh66 fcd_veh66" vType="veh_passenger" speedFactor="0.91" vaporized=""/>