<?xml version="1.0" encoding="UTF-8"?>

<!-- generated on 2025-02-24 21:58:13 by Eclipse SUMO sumo Version 1.20.0
<configuration xmlns:xsi="http://www.w3.org/2001/XMLSchema-instance" xsi:noNamespaceSchemaLocation="http://sumo.dlr.de/xsd/sumoConfiguration.xsd">

    <input>
        <net-file value="C:\Users\Anson\OneDrive\002_UCB\04_ENGIN296\20241022\ai-for-traffic\2025-02-24-21-58-04\osm.net.xml.gz"/>
        <route-files value="C:\Users\Anson\OneDrive\002_UCB\04_ENGIN296\20241022\ai-for-traffic\2025-02-24-21-58-04\trips.trips.xml"/>
        <additional-files value="C:\Users\Anson\OneDrive\002_UCB\04_ENGIN296\20241022\ai-for-traffic\2025-02-24-21-58-04\osm_stops.add.xml"/>
    </input>

    <output>
        <vehroute-output value="C:\Users\Anson\OneDrive\002_UCB\04_ENGIN296\20241022\ai-for-traffic\2025-02-24-21-58-04\vehroutes.xml"/>
        <stop-output value="C:\Users\Anson\OneDrive\002_UCB\04_ENGIN296\20241022\ai-for-traffic\2025-02-24-21-58-04\stopinfos.xml"/>
    </output>

    <time>
        <begin value="0.0"/>
    </time>

    <processing>
        <ignore-route-errors value="true"/>
    </processing>

    <routing>
        <device.rerouting.adaptation-interval value="0"/>
    </routing>

    <report>
        <aggregate-warnings value="5"/>
        <error-log value="C:\Users\Anson\OneDrive\002_UCB\04_ENGIN296\20241022\ai-for-traffic\2025-02-24-21-58-04\trips.trips.xml.errorlog"/>
        <no-step-log value="true"/>
    </report>

</configuration>
-->

<routes xmlns:xsi="http://www.w3.org/2001/XMLSchema-instance" xsi:noNamespaceSchemaLocation="http://sumo.dlr.de/xsd/routes_file.xsd">
    <vehicle id="2_bus_52:0" type="pt_bus" depart="17.00" departLane="0" arrival="60.00">
        <route edges="679682614"/>
        <stop busStop="6364416038" duration="30.00"/>
    </vehicle>

    <vehicle id="1_bus_51B:1" type="pt_bus" depart="15.00" departLane="0" arrival="99.00">
        <route edges="196779226#1 196779226#2 196779226#3 196779226#4 196779226#5 196779226#8"/>
        <stop busStop="6561839360" duration="30.00"/>
    </vehicle>

    <vehicle id="3_bus_52:1" type="pt_bus" depart="57.00" departLane="0" arrival="103.00">
        <route edges="679682614 279321232"/>
        <stop busStop="6364416038" duration="30.00"/>
    </vehicle>

    <vehicle id="0_bus_51B:0" type="pt_bus" depart="15.00" departLane="0" arrival="109.00">
        <route edges="21456366#0 21456366#1 21456366#2 749905614#0 195433863#1 195433863#2 195433863#3 679682614 279321232"/>
        <stop busStop="6410508155" duration="30.00"/>
    </vehicle>

    <vehicle id="4_bus_51B:2" type="pt_bus" depart="119.00" departLane="0" arrival="210.00">
        <route edges="21456366#0 21456366#1 21456366#2 749905614#0 195433863#1 195433863#2 195433863#3 679682614 279321232"/>
        <stop busStop="6410508155" duration="30.00"/>
    </vehicle>

    <vehicle id="5_bus_51B:3" type="pt_bus" depart="131.00" departLane="0" arrival="217.00">
        <route edges="196779226#1 196779226#2 196779226#3 196779226#4 196779226#5 196779226#8"/>
        <stop busStop="6561839360" duration="30.00"/>
    </vehicle>

    <vehicle id="6_bus_7:0" type="pt_bus" depart="137.00" departLane="0" arrival="256.00">
        <route edges="196779226#1 196779226#2 196779226#3 196779226#4 196779226#5 196779226#8"/>
        <stop busStop="6561839360" duration="30.00"/>
    </vehicle>

    <vehicle id="7_bus_7:1" type="pt_bus" depart="133.00" departLane="0" arrival="260.00">
        <route edges="21456366#0 21456366#1 21456366#2 749905614#0 195433863#1 195433863#2 195433863#3 679682614 279321232"/>
        <stop busStop="6410508155" duration="30.00"/>
    </vehicle>

    <vehicle id="8_bus_851:0" type="pt_bus" depart="165.00" departLane="0" arrival="297.00">
        <route edges="21456366#0 21456366#1 21456366#2 749905614#0 195433863#1 195433863#2 195433863#3 679682614 279321232"/>
        <stop busStop="6410508155" duration="30.00"/>
    </vehicle>

    <vehicle id="9_bus_851:1" type="pt_bus" depart="253.00" departLane="0" arrival="332.00">
        <route edges="196779226#1 196779226#2 196779226#3 196779226#4 196779226#5 196779226#8"/>
        <stop busStop="6561839360" duration="30.00"/>
    </vehicle>

    <vehicle id="10_bus_F:0" type="pt_bus" depart="303.00" departLane="0" arrival="408.00">
        <route edges="21456366#0 21456366#1 21456366#2 749905614#0 195433863#1 195433863#2 195433863#3 679682614 279321232"/>
        <stop busStop="283057547" duration="30.00"/>
    </vehicle>

    <vehicle id="12_bus_36:0" type="pt_bus" depart="353.00" departLane="0" arrival="437.00">
        <route edges="196779226#1 196779226#2 196779226#3 196779226#4 196779226#5 196779226#8"/>
        <stop busStop="6561839360" duration="30.00"/>
    </vehicle>

    <vehicle id="11_bus_F:1" type="pt_bus" depart="326.00" departLane="0" arrival="448.00">
        <route edges="21456366#0 21456366#1 21456366#2 749905614#0 195433863#1 195433863#2 195433863#3 679682614 279321232"/>
        <stop busStop="283057547" duration="30.00"/>
    </vehicle>

    <vehicle id="13_bus_79:0" type="pt_bus" depart="383.00" departLane="0" arrival="477.00">
        <route edges="196779226#1 196779226#2 196779226#3 196779226#4 196779226#5 196779226#8"/>
        <stop busStop="6561839360" duration="30.00"/>
    </vehicle>

    <vehicle id="14_bus_79:1" type="pt_bus" depart="389.00" departLane="0" arrival="498.00">
        <route edges="21456366#0 21456366#1 21456366#2 749905614#0 195433863#1 195433863#2 195433863#3 679682614 279321232"/>
        <stop busStop="283057547" duration="30.00"/>
    </vehicle>

    <vehicle id="15_bus_6:0" type="pt_bus" depart="406.00" departLane="1" arrival="501.00">
        <route edges="1078778152#1 195433863#1 195433863#2 195433863#3 679682614 279321232"/>
        <stop busStop="6364416038" duration="30.00"/>
    </vehicle>

    <vehicle id="16_bus_36:1" type="pt_bus" depart="441.00" departLane="0" arrival="556.00">
        <route edges="21456366#0 21456366#1 21456366#2 749905614#0 195433863#1 195433863#2 195433863#3 679682614 279321232"/>
        <stop busStop="283057547" duration="30.00"/>
    </vehicle>

    <vehicle id="17_bus_P:0" type="pt_bus" depart="485.00" departLane="0" arrival="572.00">
        <route edges="21456366#0 21456366#1 21456366#2 749905614#0 195433863#1 195433863#2 195433863#3 679682614 279321232"/>
        <stop busStop="6561948718" duration="30.00"/>
    </vehicle>

    <vehicle id="18_bus_N:0" type="pt_bus" depart="535.00" departLane="0" arrival="610.00">
        <route edges="21456366#0 21456366#1 21456366#2 749905614#0 195433863#1 195433863#2 195433863#3 679682614 279321232"/>
        <stop busStop="6561948718" duration="30.00"/>
    </vehicle>

</routes>
