<?xml version="1.0" encoding="UTF-8"?>

<!-- generated on 2025-02-25 21:52:37 by Eclipse SUMO sumo Version 1.20.0
<configuration xmlns:xsi="http://www.w3.org/2001/XMLSchema-instance" xsi:noNamespaceSchemaLocation="http://sumo.dlr.de/xsd/sumoConfiguration.xsd">

    <input>
        <net-file value="osm.net.xml.gz"/>
        <route-files value="buses.rou.xml, bikes.rou.xml, vehicles.rou.xml, pedestrians.rou.xml"/>
        <additional-files value="osm.poly.xml.gz"/>
    </input>

    <output>
        <fcd-output value="sumoTrace.xml"/>
        <queue-output value="queue-output.xml"/>
        <summary-output value="summary.xml"/>
        <tripinfo-output value="tripinfo.xml"/>
        <statistic-output value="stats.xml"/>
    </output>

    <processing>
        <ignore-route-errors value="true"/>
        <tls.actuated.jam-threshold value="30"/>
    </processing>

    <routing>
        <device.rerouting.adaptation-steps value="18"/>
        <device.rerouting.adaptation-interval value="10"/>
    </routing>

    <report>
        <verbose value="true"/>
        <duration-log.statistics value="true"/>
        <no-step-log value="true"/>
    </report>

    <gui_only>
        <gui-settings-file value="osm.view.xml"/>
    </gui_only>

</configuration>
-->

<queue-export xmlns:xsi="http://www.w3.org/2001/XMLSchema-instance" xsi:noNamespaceSchemaLocation="http://sumo.dlr.de/xsd/queue_file.xsd">
    <data timestep="0.00">
        <lanes/>
    </data>
    <data timestep="1.00">
        <lanes/>
    </data>
    <data timestep="2.00">
        <lanes>
            <lane id="195433863#2_1" queueing_time="0.00" queueing_length="0.00" queueing_length_experimental="11.13"/>
        </lanes>
    </data>
    <data timestep="3.00">
        <lanes>
            <lane id="195433863#2_1" queueing_time="0.00" queueing_length="0.00" queueing_length_experimental="9.77"/>
        </lanes>
    </data>
    <data timestep="4.00">
        <lanes/>
    </data>
    <data timestep="5.00">
        <lanes/>
    </data>
    <data timestep="6.00">
        <lanes/>
    </data>
    <data timestep="7.00">
        <lanes/>
    </data>
    <data timestep="8.00">
        <lanes>
            <lane id="195433863#3_0" queueing_time="0.00" queueing_length="0.00" queueing_length_experimental="1.71"/>
        </lanes>
    </data>
    <data timestep="9.00">
        <lanes>
            <lane id="195433863#2_1" queueing_time="0.00" queueing_length="0.00" queueing_length_experimental="11.13"/>
            <lane id="195433863#3_0" queueing_time="0.00" queueing_length="0.00" queueing_length_experimental="1.60"/>
        </lanes>
    </data>
    <data timestep="10.00">
        <lanes>
            <lane id="195433863#3_0" queueing_time="1.00" queueing_length="1.60" queueing_length_experimental="1.60"/>
        </lanes>
    </data>
    <data timestep="11.00">
        <lanes>
            <lane id="195433863#3_0" queueing_time="2.00" queueing_length="1.60" queueing_length_experimental="1.60"/>
        </lanes>
    </data>
    <data timestep="12.00">
        <lanes>
            <lane id="195433863#3_0" queueing_time="3.00" queueing_length="1.60" queueing_length_experimental="1.60"/>
        </lanes>
    </data>
    <data timestep="13.00">
        <lanes>
            <lane id="195433863#3_0" queueing_time="4.00" queueing_length="1.60" queueing_length_experimental="1.60"/>
            <lane id="749905614#0_1" queueing_time="0.00" queueing_length="0.00" queueing_length_experimental="6.09"/>
        </lanes>
    </data>
    <data timestep="14.00">
        <lanes>
            <lane id="195433863#3_0" queueing_time="5.00" queueing_length="1.60" queueing_length_experimental="1.60"/>
            <lane id="749905614#0_1" queueing_time="1.00" queueing_length="6.00" queueing_length_experimental="6.00"/>
        </lanes>
    </data>
    <data timestep="15.00">
        <lanes>
            <lane id="195433863#3_0" queueing_time="6.00" queueing_length="1.60" queueing_length_experimental="1.60"/>
            <lane id="749905614#0_1" queueing_time="2.00" queueing_length="6.00" queueing_length_experimental="6.00"/>
        </lanes>
    </data>
    <data timestep="16.00">
        <lanes>
            <lane id="195433863#2_1" queueing_time="0.00" queueing_length="0.00" queueing_length_experimental="11.13"/>
            <lane id="195433863#3_0" queueing_time="7.00" queueing_length="1.60" queueing_length_experimental="1.60"/>
            <lane id="749905614#0_1" queueing_time="3.00" queueing_length="6.00" queueing_length_experimental="6.00"/>
        </lanes>
    </data>
    <data timestep="17.00">
        <lanes>
            <lane id="195433863#3_0" queueing_time="8.00" queueing_length="1.60" queueing_length_experimental="1.60"/>
            <lane id="749905614#0_1" queueing_time="4.00" queueing_length="6.00" queueing_length_experimental="6.00"/>
        </lanes>
    </data>
    <data timestep="18.00">
        <lanes>
            <lane id="195433863#3_0" queueing_time="9.00" queueing_length="1.60" queueing_length_experimental="1.60"/>
            <lane id="749905614#0_1" queueing_time="5.00" queueing_length="6.00" queueing_length_experimental="13.86"/>
        </lanes>
    </data>
    <data timestep="19.00">
        <lanes>
            <lane id="1078778152#1_1" queueing_time="0.00" queueing_length="0.00" queueing_length_experimental="6.02"/>
            <lane id="195433863#3_0" queueing_time="10.00" queueing_length="1.60" queueing_length_experimental="1.60"/>
            <lane id="749905614#0_1" queueing_time="6.00" queueing_length="6.00" queueing_length_experimental="13.61"/>
        </lanes>
    </data>
    <data timestep="20.00">
        <lanes>
            <lane id="1078778152#1_1" queueing_time="1.00" queueing_length="6.00" queueing_length_experimental="6.00"/>
            <lane id="195433863#3_0" queueing_time="11.00" queueing_length="1.60" queueing_length_experimental="1.60"/>
            <lane id="749905614#0_1" queueing_time="7.00" queueing_length="13.53" queueing_length_experimental="13.53"/>
        </lanes>
    </data>
    <data timestep="21.00">
        <lanes>
            <lane id="1078778152#1_1" queueing_time="2.00" queueing_length="6.00" queueing_length_experimental="13.62"/>
            <lane id="195433863#3_0" queueing_time="12.00" queueing_length="1.60" queueing_length_experimental="1.60"/>
            <lane id="749905614#0_1" queueing_time="8.00" queueing_length="13.50" queueing_length_experimental="21.50"/>
        </lanes>
    </data>
    <data timestep="22.00">
        <lanes>
            <lane id="1078778152#1_1" queueing_time="3.00" queueing_length="13.55" queueing_length_experimental="13.55"/>
            <lane id="195433863#3_0" queueing_time="13.00" queueing_length="1.60" queueing_length_experimental="1.60"/>
            <lane id="749905614#0_1" queueing_time="3.00" queueing_length="13.50" queueing_length_experimental="21.14"/>
        </lanes>
    </data>
    <data timestep="23.00">
        <lanes>
            <lane id="1078778152#1_1" queueing_time="4.00" queueing_length="13.52" queueing_length_experimental="13.52"/>
            <lane id="195433863#3_0" queueing_time="14.00" queueing_length="1.60" queueing_length_experimental="1.60"/>
            <lane id="749905614#0_1" queueing_time="0.00" queueing_length="0.00" queueing_length_experimental="28.91"/>
        </lanes>
    </data>
    <data timestep="24.00">
        <lanes>
            <lane id="1078778152#1_1" queueing_time="5.00" queueing_length="86.91" queueing_length_experimental="21.04"/>
            <lane id="195433863#3_0" queueing_time="15.00" queueing_length="1.60" queueing_length_experimental="1.60"/>
            <lane id="749905614#0_1" queueing_time="0.00" queueing_length="0.00" queueing_length_experimental="28.58"/>
        </lanes>
    </data>
    <data timestep="25.00">
        <lanes>
            <lane id="1078778152#1_1" queueing_time="6.00" queueing_length="21.02" queueing_length_experimental="21.02"/>
            <lane id="195433863#2_1" queueing_time="0.00" queueing_length="0.00" queueing_length_experimental="11.13"/>
            <lane id="195433863#3_0" queueing_time="16.00" queueing_length="1.60" queueing_length_experimental="1.60"/>
            <lane id="749905614#0_1" queueing_time="0.00" queueing_length="0.00" queueing_length_experimental="27.22"/>
        </lanes>
    </data>
    <data timestep="26.00">
        <lanes>
            <lane id="1078778152#1_1" queueing_time="7.00" queueing_length="21.01" queueing_length_experimental="21.01"/>
            <lane id="195433863#1_1" queueing_time="0.00" queueing_length="0.00" queueing_length_experimental="6.39"/>
            <lane id="195433863#3_0" queueing_time="17.00" queueing_length="1.60" queueing_length_experimental="1.60"/>
            <lane id="749905614#0_1" queueing_time="0.00" queueing_length="0.00" queueing_length_experimental="35.36"/>
        </lanes>
    </data>
    <data timestep="27.00">
        <lanes>
            <lane id="1078778152#1_1" queueing_time="8.00" queueing_length="21.00" queueing_length_experimental="21.00"/>
            <lane id="195433863#1_1" queueing_time="0.00" queueing_length="0.00" queueing_length_experimental="6.11"/>
            <lane id="195433863#2_1" queueing_time="0.00" queueing_length="0.00" queueing_length_experimental="11.13"/>
            <lane id="195433863#3_0" queueing_time="18.00" queueing_length="1.60" queueing_length_experimental="1.60"/>
        </lanes>
    </data>
    <data timestep="28.00">
        <lanes>
            <lane id="1078778152#1_1" queueing_time="9.00" queueing_length="21.00" queueing_length_experimental="21.00"/>
            <lane id="195433863#1_1" queueing_time="1.00" queueing_length="6.03" queueing_length_experimental="6.03"/>
            <lane id="195433863#3_0" queueing_time="19.00" queueing_length="1.60" queueing_length_experimental="1.60"/>
        </lanes>
    </data>
    <data timestep="29.00">
        <lanes>
            <lane id="1078778152#1_1" queueing_time="10.00" queueing_length="21.00" queueing_length_experimental="21.00"/>
            <lane id="195433863#1_1" queueing_time="2.00" queueing_length="13.54" queueing_length_experimental="13.54"/>
            <lane id="195433863#3_0" queueing_time="20.00" queueing_length="1.60" queueing_length_experimental="1.60"/>
        </lanes>
    </data>
    <data timestep="30.00">
        <lanes>
            <lane id="1078778152#1_1" queueing_time="11.00" queueing_length="21.00" queueing_length_experimental="21.00"/>
            <lane id="195433863#1_1" queueing_time="3.00" queueing_length="13.52" queueing_length_experimental="13.52"/>
            <lane id="195433863#3_0" queueing_time="21.00" queueing_length="1.60" queueing_length_experimental="1.60"/>
        </lanes>
    </data>
    <data timestep="31.00">
        <lanes>
            <lane id="1078778152#1_1" queueing_time="12.00" queueing_length="86.59" queueing_length_experimental="21.00"/>
            <lane id="195433863#1_1" queueing_time="4.00" queueing_length="13.51" queueing_length_experimental="21.27"/>
            <lane id="195433863#2_1" queueing_time="0.00" queueing_length="0.00" queueing_length_experimental="11.13"/>
            <lane id="195433863#3_0" queueing_time="22.00" queueing_length="1.60" queueing_length_experimental="1.60"/>
        </lanes>
    </data>
    <data timestep="32.00">
        <lanes>
            <lane id="1078778152#1_1" queueing_time="13.00" queueing_length="28.53" queueing_length_experimental="28.53"/>
            <lane id="195433863#1_1" queueing_time="5.00" queueing_length="13.50" queueing_length_experimental="28.79"/>
            <lane id="195433863#3_0" queueing_time="23.00" queueing_length="1.60" queueing_length_experimental="1.60"/>
        </lanes>
    </data>
    <data timestep="33.00">
        <lanes>
            <lane id="1078778152#1_1" queueing_time="14.00" queueing_length="28.51" queueing_length_experimental="28.51"/>
            <lane id="195433863#1_1" queueing_time="6.00" queueing_length="28.70" queueing_length_experimental="36.90"/>
            <lane id="195433863#3_0" queueing_time="24.00" queueing_length="1.60" queueing_length_experimental="1.60"/>
        </lanes>
    </data>
    <data timestep="34.00">
        <lanes>
            <lane id="1078778152#1_1" queueing_time="15.00" queueing_length="28.51" queueing_length_experimental="36.03"/>
            <lane id="195433863#1_1" queueing_time="7.00" queueing_length="21.01" queueing_length_experimental="36.34"/>
            <lane id="195433863#3_0" queueing_time="25.00" queueing_length="1.60" queueing_length_experimental="1.60"/>
        </lanes>
    </data>
    <data timestep="35.00">
        <lanes>
            <lane id="1078778152#1_1" queueing_time="16.00" queueing_length="36.01" queueing_length_experimental="43.61"/>
            <lane id="195433863#1_1" queueing_time="8.00" queueing_length="28.52" queueing_length_experimental="36.13"/>
            <lane id="195433863#3_0" queueing_time="26.00" queueing_length="1.60" queueing_length_experimental="1.60"/>
            <lane id="749905614#0_1" queueing_time="1.00" queueing_length="6.02" queueing_length_experimental="6.02"/>
        </lanes>
    </data>
    <data timestep="36.00">
        <lanes>
            <lane id="1078778152#1_1" queueing_time="17.00" queueing_length="43.56" queueing_length_experimental="51.29"/>
            <lane id="195433863#1_1" queueing_time="8.00" queueing_length="36.04" queueing_length_experimental="43.78"/>
            <lane id="195433863#3_0" queueing_time="27.00" queueing_length="1.60" queueing_length_experimental="1.60"/>
            <lane id="749905614#0_1" queueing_time="2.00" queueing_length="6.01" queueing_length_experimental="13.74"/>
        </lanes>
    </data>
    <data timestep="37.00">
        <lanes>
            <lane id="1078778152#1_1" queueing_time="18.00" queueing_length="43.53" queueing_length_experimental="51.11"/>
            <lane id="195433863#1_1" queueing_time="5.00" queueing_length="36.02" queueing_length_experimental="43.60"/>
            <lane id="195433863#3_0" queueing_time="28.00" queueing_length="1.60" queueing_length_experimental="1.60"/>
            <lane id="749905614#0_1" queueing_time="3.00" queueing_length="6.00" queueing_length_experimental="13.55"/>
        </lanes>
    </data>
    <data timestep="38.00">
        <lanes>
            <lane id="1078778152#1_1" queueing_time="19.00" queueing_length="51.06" queueing_length_experimental="58.61"/>
            <lane id="195433863#1_1" queueing_time="4.00" queueing_length="43.54" queueing_length_experimental="43.54"/>
            <lane id="195433863#3_0" queueing_time="29.00" queueing_length="1.60" queueing_length_experimental="1.60"/>
            <lane id="749905614#0_1" queueing_time="4.00" queueing_length="13.52" queueing_length_experimental="21.28"/>
        </lanes>
    </data>
    <data timestep="39.00">
        <lanes>
            <lane id="1078778152#1_1" queueing_time="20.00" queueing_length="58.57" queueing_length_experimental="66.27"/>
            <lane id="195433863#1_1" queueing_time="4.00" queueing_length="43.51" queueing_length_experimental="43.51"/>
            <lane id="195433863#3_0" queueing_time="30.00" queueing_length="1.60" queueing_length_experimental="1.60"/>
            <lane id="749905614#0_1" queueing_time="5.00" queueing_length="13.51" queueing_length_experimental="28.84"/>
        </lanes>
    </data>
    <data timestep="40.00">
        <lanes>
            <lane id="1078778152#1_1" queueing_time="21.00" queueing_length="58.54" queueing_length_experimental="66.17"/>
            <lane id="195433863#1_1" queueing_time="3.00" queueing_length="51.03" queueing_length_experimental="43.51"/>
            <lane id="195433863#3_0" queueing_time="31.00" queueing_length="1.60" queueing_length_experimental="1.60"/>
            <lane id="749905614#0_1" queueing_time="6.00" queueing_length="21.01" queueing_length_experimental="28.72"/>
        </lanes>
    </data>
    <data timestep="41.00">
        <lanes>
            <lane id="1078778152#1_1" queueing_time="22.00" queueing_length="58.52" queueing_length_experimental="66.04"/>
            <lane id="195433863#1_1" queueing_time="2.00" queueing_length="51.01" queueing_length_experimental="43.02"/>
            <lane id="195433863#3_0" queueing_time="32.00" queueing_length="1.60" queueing_length_experimental="1.60"/>
            <lane id="749905614#0_1" queueing_time="7.00" queueing_length="21.00" queueing_length_experimental="36.29"/>
        </lanes>
    </data>
    <data timestep="42.00">
        <lanes>
            <lane id="1078778152#1_1" queueing_time="23.00" queueing_length="66.02" queueing_length_experimental="66.02"/>
            <lane id="195433863#2_1" queueing_time="0.00" queueing_length="0.00" queueing_length_experimental="11.13"/>
            <lane id="195433863#3_0" queueing_time="33.00" queueing_length="1.60" queueing_length_experimental="1.60"/>
            <lane id="749905614#0_1" queueing_time="8.00" queueing_length="28.51" queueing_length_experimental="36.05"/>
        </lanes>
    </data>
    <data timestep="43.00">
        <lanes>
            <lane id="1078778152#1_1" queueing_time="24.00" queueing_length="73.55" queueing_length_experimental="66.02"/>
            <lane id="195433863#1_1" queueing_time="1.00" queueing_length="58.11" queueing_length_experimental="0.00"/>
            <lane id="195433863#3_0" queueing_time="34.00" queueing_length="1.60" queueing_length_experimental="1.60"/>
            <lane id="749905614#0_1" queueing_time="9.00" queueing_length="36.01" queueing_length_experimental="43.73"/>
        </lanes>
    </data>
    <data timestep="44.00">
        <lanes>
            <lane id="1078778152#1_1" queueing_time="23.00" queueing_length="73.53" queueing_length_experimental="66.01"/>
            <lane id="195433863#3_0" queueing_time="35.00" queueing_length="1.60" queueing_length_experimental="1.60"/>
            <lane id="749905614#0_1" queueing_time="10.00" queueing_length="36.01" queueing_length_experimental="43.55"/>
        </lanes>
    </data>
    <data timestep="45.00">
        <lanes>
            <lane id="1078778152#1_1" queueing_time="21.00" queueing_length="73.52" queueing_length_experimental="66.01"/>
            <lane id="195433863#3_0" queueing_time="36.00" queueing_length="1.60" queueing_length_experimental="1.60"/>
            <lane id="749905614#0_1" queueing_time="11.00" queueing_length="43.51" queueing_length_experimental="51.08"/>
        </lanes>
    </data>
    <data timestep="46.00">
        <lanes>
            <lane id="1078778152#1_1" queueing_time="15.00" queueing_length="73.51" queueing_length_experimental="66.01"/>
            <lane id="195433863#3_0" queueing_time="37.00" queueing_length="1.60" queueing_length_experimental="1.60"/>
            <lane id="749905614#0_1" queueing_time="12.00" queueing_length="51.04" queueing_length_experimental="51.04"/>
        </lanes>
    </data>
    <data timestep="47.00">
        <lanes>
            <lane id=":cluster_4279441445_4279441446_4279441447_53080628_2_1" queueing_time="0.00" queueing_length="0.00" queueing_length_experimental="7.01"/>
            <lane id="1078778152#1_1" queueing_time="13.00" queueing_length="73.51" queueing_length_experimental="66.01"/>
            <lane id="195433863#3_0" queueing_time="38.00" queueing_length="1.60" queueing_length_experimental="1.60"/>
            <lane id="749905614#0_1" queueing_time="13.00" queueing_length="51.02" queueing_length_experimental="51.02"/>
        </lanes>
    </data>
    <data timestep="48.00">
        <lanes>
            <lane id=":cluster_4279441445_4279441446_4279441447_53080628_2_1" queueing_time="0.00" queueing_length="0.00" queueing_length_experimental="6.39"/>
            <lane id="1078778152#1_0" queueing_time="1.00" queueing_length="85.60" queueing_length_experimental="0.00"/>
            <lane id="1078778152#1_1" queueing_time="13.00" queueing_length="81.01" queueing_length_experimental="66.01"/>
            <lane id="195433863#3_0" queueing_time="39.00" queueing_length="1.60" queueing_length_experimental="1.60"/>
            <lane id="749905614#0_1" queueing_time="14.00" queueing_length="58.52" queueing_length_experimental="51.01"/>
        </lanes>
    </data>
    <data timestep="49.00">
        <lanes>
            <lane id="1078778152#1_0" queueing_time="2.00" queueing_length="85.60" queueing_length_experimental="0.00"/>
            <lane id="1078778152#1_1" queueing_time="12.00" queueing_length="81.01" queueing_length_experimental="66.01"/>
            <lane id="195433863#3_0" queueing_time="40.00" queueing_length="1.60" queueing_length_experimental="1.60"/>
            <lane id="749905614#0_1" queueing_time="15.00" queueing_length="58.52" queueing_length_experimental="51.01"/>
        </lanes>
    </data>
    <data timestep="50.00">
        <lanes>
            <lane id="1078778152#1_0" queueing_time="3.00" queueing_length="85.60" queueing_length_experimental="0.00"/>
            <lane id="1078778152#1_1" queueing_time="12.00" queueing_length="81.01" queueing_length_experimental="66.01"/>
            <lane id="195433863#3_0" queueing_time="41.00" queueing_length="1.60" queueing_length_experimental="1.60"/>
            <lane id="749905614#0_1" queueing_time="16.00" queueing_length="58.51" queueing_length_experimental="51.01"/>
        </lanes>
    </data>
    <data timestep="51.00">
        <lanes>
            <lane id="1078778152#1_0" queueing_time="4.00" queueing_length="85.60" queueing_length_experimental="0.00"/>
            <lane id="1078778152#1_1" queueing_time="10.00" queueing_length="81.01" queueing_length_experimental="66.01"/>
            <lane id="195433863#3_0" queueing_time="42.00" queueing_length="1.60" queueing_length_experimental="1.60"/>
            <lane id="749905614#0_1" queueing_time="17.00" queueing_length="58.51" queueing_length_experimental="51.01"/>
        </lanes>
    </data>
    <data timestep="52.00">
        <lanes>
            <lane id="1078778152#1_0" queueing_time="5.00" queueing_length="85.60" queueing_length_experimental="0.00"/>
            <lane id="1078778152#1_1" queueing_time="10.00" queueing_length="81.01" queueing_length_experimental="65.90"/>
            <lane id="195433863#2_1" queueing_time="0.00" queueing_length="0.00" queueing_length_experimental="11.13"/>
            <lane id="195433863#3_0" queueing_time="43.00" queueing_length="1.60" queueing_length_experimental="1.60"/>
            <lane id="749905614#0_1" queueing_time="18.00" queueing_length="58.51" queueing_length_experimental="51.01"/>
        </lanes>
    </data>
    <data timestep="53.00">
        <lanes>
            <lane id="1078778152#1_0" queueing_time="6.00" queueing_length="85.60" queueing_length_experimental="0.00"/>
            <lane id="1078778152#1_1" queueing_time="11.00" queueing_length="81.01" queueing_length_experimental="65.32"/>
            <lane id="195433863#3_0" queueing_time="44.00" queueing_length="1.60" queueing_length_experimental="1.60"/>
            <lane id="749905614#0_1" queueing_time="19.00" queueing_length="58.51" queueing_length_experimental="51.01"/>
        </lanes>
    </data>
    <data timestep="54.00">
        <lanes>
            <lane id="1078778152#1_0" queueing_time="7.00" queueing_length="85.60" queueing_length_experimental="0.00"/>
            <lane id="1078778152#1_1" queueing_time="7.00" queueing_length="80.93" queueing_length_experimental="0.00"/>
            <lane id="195433863#3_0" queueing_time="45.00" queueing_length="1.60" queueing_length_experimental="1.60"/>
            <lane id="749905614#0_1" queueing_time="20.00" queueing_length="58.51" queueing_length_experimental="51.01"/>
        </lanes>
    </data>
    <data timestep="55.00">
        <lanes>
            <lane id="1078778152#1_0" queueing_time="8.00" queueing_length="85.60" queueing_length_experimental="0.00"/>
            <lane id="195433863#3_0" queueing_time="46.00" queueing_length="1.60" queueing_length_experimental="1.60"/>
            <lane id="749905614#0_1" queueing_time="21.00" queueing_length="58.51" queueing_length_experimental="51.01"/>
        </lanes>
    </data>
    <data timestep="56.00">
        <lanes>
            <lane id="1078778152#1_0" queueing_time="9.00" queueing_length="85.60" queueing_length_experimental="0.00"/>
            <lane id="1078778152#1_1" queueing_time="0.00" queueing_length="0.00" queueing_length_experimental="49.61"/>
            <lane id="195433863#3_0" queueing_time="47.00" queueing_length="1.60" queueing_length_experimental="1.60"/>
            <lane id="749905614#0_1" queueing_time="22.00" queueing_length="58.51" queueing_length_experimental="51.01"/>
        </lanes>
    </data>
    <data timestep="57.00">
        <lanes>
            <lane id="1078778152#1_1" queueing_time="0.00" queueing_length="0.00" queueing_length_experimental="57.44"/>
            <lane id="195433863#2_1" queueing_time="0.00" queueing_length="0.00" queueing_length_experimental="11.13"/>
            <lane id="195433863#3_0" queueing_time="48.00" queueing_length="1.60" queueing_length_experimental="1.60"/>
            <lane id="749905614#0_1" queueing_time="23.00" queueing_length="58.51" queueing_length_experimental="51.01"/>
        </lanes>
    </data>
    <data timestep="58.00">
        <lanes>
            <lane id="1078778152#1_1" queueing_time="1.00" queueing_length="84.66" queueing_length_experimental="0.00"/>
            <lane id="195433863#3_0" queueing_time="49.00" queueing_length="1.60" queueing_length_experimental="1.60"/>
            <lane id="749905614#0_1" queueing_time="24.00" queueing_length="58.51" queueing_length_experimental="51.01"/>
        </lanes>
    </data>
    <data timestep="59.00">
        <lanes>
            <lane id="1078778152#1_1" queueing_time="0.00" queueing_length="0.00" queueing_length_experimental="6.08"/>
            <lane id="195433863#3_0" queueing_time="50.00" queueing_length="1.60" queueing_length_experimental="1.60"/>
            <lane id="749905614#0_1" queueing_time="25.00" queueing_length="58.51" queueing_length_experimental="51.01"/>
        </lanes>
    </data>
    <data timestep="60.00">
        <lanes>
            <lane id="1078778152#1_0" queueing_time="1.00" queueing_length="86.65" queueing_length_experimental="0.00"/>
            <lane id="1078778152#1_1" queueing_time="1.00" queueing_length="6.03" queueing_length_experimental="14.02"/>
            <lane id="195433863#3_0" queueing_time="51.00" queueing_length="1.60" queueing_length_experimental="1.60"/>
            <lane id="749905614#0_1" queueing_time="26.00" queueing_length="58.51" queueing_length_experimental="51.01"/>
        </lanes>
    </data>
    <data timestep="61.00">
        <lanes>
            <lane id="1078778152#1_1" queueing_time="2.00" queueing_length="6.01" queueing_length_experimental="13.76"/>
            <lane id="195433863#3_0" queueing_time="52.00" queueing_length="1.60" queueing_length_experimental="1.60"/>
            <lane id="749905614#0_1" queueing_time="24.00" queueing_length="58.51" queueing_length_experimental="51.01"/>
        </lanes>
    </data>
    <data timestep="62.00">
        <lanes>
            <lane id="1078778152#1_1" queueing_time="3.00" queueing_length="86.44" queueing_length_experimental="30.35"/>
            <lane id="195433863#3_0" queueing_time="53.00" queueing_length="1.60" queueing_length_experimental="1.60"/>
            <lane id="749905614#0_1" queueing_time="23.00" queueing_length="58.51" queueing_length_experimental="51.01"/>
        </lanes>
    </data>
    <data timestep="63.00">
        <lanes>
            <lane id="1078778152#1_1" queueing_time="4.00" queueing_length="13.54" queueing_length_experimental="29.22"/>
            <lane id="195433863#3_0" queueing_time="54.00" queueing_length="1.60" queueing_length_experimental="1.60"/>
            <lane id="749905614#0_1" queueing_time="22.00" queueing_length="58.51" queueing_length_experimental="51.01"/>
        </lanes>
    </data>
    <data timestep="64.00">
        <lanes>
            <lane id="1078778152#1_0" queueing_time="1.00" queueing_length="86.80" queueing_length_experimental="0.00"/>
            <lane id="1078778152#1_1" queueing_time="5.00" queueing_length="21.06" queueing_length_experimental="37.48"/>
            <lane id="195433863#3_0" queueing_time="55.00" queueing_length="1.60" queueing_length_experimental="1.60"/>
            <lane id="749905614#0_1" queueing_time="22.00" queueing_length="58.51" queueing_length_experimental="51.01"/>
        </lanes>
    </data>
    <data timestep="65.00">
        <lanes>
            <lane id="1078778152#1_1" queueing_time="6.00" queueing_length="21.04" queueing_length_experimental="45.42"/>
            <lane id="195433863#3_0" queueing_time="56.00" queueing_length="1.60" queueing_length_experimental="1.60"/>
            <lane id="749905614#0_1" queueing_time="21.00" queueing_length="58.51" queueing_length_experimental="51.01"/>
        </lanes>
    </data>
    <data timestep="66.00">
        <lanes>
            <lane id="1078778152#1_1" queueing_time="7.00" queueing_length="28.55" queueing_length_experimental="53.44"/>
            <lane id="195433863#3_0" queueing_time="57.00" queueing_length="1.60" queueing_length_experimental="1.60"/>
            <lane id="749905614#0_1" queueing_time="21.00" queueing_length="58.51" queueing_length_experimental="51.01"/>
        </lanes>
    </data>
    <data timestep="67.00">