<?xml version="1.0" encoding="UTF-8"?>

<!-- generated on 2025-02-26 17:53:41 by Eclipse SUMO sumo Version 1.20.0
<configuration xmlns:xsi="http://www.w3.org/2001/XMLSchema-instance" xsi:noNamespaceSchemaLocation="http://sumo.dlr.de/xsd/sumoConfiguration.xsd">

    <input>
        <net-file value="osm.net.xml.gz"/>
        <route-files value="buses.rou.xml, bikes.rou.xml, vehicles.rou.xml, pedestrians.rou.xml"/>
        <additional-files value="osm.poly.xml.gz"/>
    </input>

    <output>
        <fcd-output value="sumoTrace.xml"/>
        <queue-output value="queue-output.xml"/>
        <summary-output value="summary.xml"/>
        <tripinfo-output value="tripinfo.xml"/>
        <statistic-output value="stats.xml"/>
    </output>

    <processing>
        <ignore-route-errors value="true"/>
        <tls.actuated.jam-threshold value="30"/>
    </processing>

    <routing>
        <device.rerouting.adaptation-steps value="18"/>
        <device.rerouting.adaptation-interval value="10"/>
    </routing>

    <report>
        <verbose value="true"/>
        <duration-log.statistics value="true"/>
        <no-step-log value="true"/>
    </report>

    <gui_only>
        <gui-settings-file value="osm.view.xml"/>
    </gui_only>

</configuration>
-->

<tripinfos xmlns:xsi="http://www.w3.org/2001/XMLSchema-instance" xsi:noNamespaceSchemaLocation="http://sumo.dlr.de/xsd/tripinfo_file.xsd">
    <tripinfo id="2" depart="2.00" departLane="195433863#2_1" departPos="5.10" departSpeed="0.00" departDelay="0.00" arrival="7.00" arrivalLane="195433863#3_1" arrivalPos="6.52" arrivalSpeed="7.98" duration="5.00" routeLength="22.04" waitingTime="0.00" waitingCount="0" stopTime="0.00" timeLoss="2.57" rerouteNo="0" devices="tripinfo_2 fcd_2" vType="passenger" speedFactor="0.83" vaporized=""/>
    <tripinfo id="1" depart="1.00" departLane="195433863#1_1" departPos="5.10" departSpeed="0.00" departDelay="0.00" arrival="9.00" arrivalLane="195433863#1_1" arrivalPos="58.27" arrivalSpeed="10.60" duration="8.00" routeLength="53.17" waitingTime="0.00" waitingCount="0" stopTime="0.00" timeLoss="2.40" rerouteNo="0" devices="tripinfo_1 fcd_1" vType="passenger" speedFactor="1.01" vaporized=""/>
    <tripinfo id="7" depart="9.00" departLane="195433863#2_1" departPos="5.10" departSpeed="0.00" departDelay="2.00" arrival="11.00" arrivalLane="195433863#2_1" arrivalPos="11.23" arrivalSpeed="4.61" duration="2.00" routeLength="6.13" waitingTime="0.00" waitingCount="0" stopTime="0.00" timeLoss="1.41" rerouteNo="0" devices="tripinfo_7 fcd_7" vType="passenger" speedFactor="1.09" vaporized=""/>
    <tripinfo id="4" depart="4.00" departLane="195433863#1_1" departPos="5.10" departSpeed="0.00" departDelay="0.00" arrival="12.00" arrivalLane="195433863#1_1" arrivalPos="58.27" arrivalSpeed="9.51" duration="8.00" routeLength="53.17" waitingTime="0.00" waitingCount="0" stopTime="0.00" timeLoss="2.58" rerouteNo="0" devices="tripinfo_4 fcd_4" vType="passenger" speedFactor="0.89" vaporized=""/>
    <tripinfo id="11" depart="11.00" departLane="195433863#1_1" departPos="5.10" departSpeed="0.00" departDelay="0.00" arrival="19.00" arrivalLane="195433863#1_1" arrivalPos="58.27" arrivalSpeed="10.28" duration="8.00" routeLength="53.17" waitingTime="0.00" waitingCount="0" stopTime="0.00" timeLoss="2.51" rerouteNo="0" devices="tripinfo_11 fcd_11" vType="passenger" speedFactor="0.99" vaporized=""/>
    <tripinfo id="16" depart="16.00" departLane="195433863#2_1" departPos="5.10" departSpeed="0.00" departDelay="0.00" arrival="20.00" arrivalLane="195433863#3_1" arrivalPos="6.52" arrivalSpeed="8.58" duration="4.00" routeLength="22.04" waitingTime="0.00" waitingCount="0" stopTime="0.00" timeLoss="2.23" rerouteNo="0" devices="tripinfo_16 fcd_16" vType="passenger" speedFactor="1.16" vaporized=""/>
    <tripinfo id="24" depart="25.00" departLane="195433863#2_1" departPos="5.10" departSpeed="0.00" departDelay="1.00" arrival="27.00" arrivalLane="195433863#2_1" arrivalPos="11.23" arrivalSpeed="3.93" duration="2.00" routeLength="6.13" waitingTime="0.00" waitingCount="0" stopTime="0.00" timeLoss="1.38" rerouteNo="0" devices="tripinfo_24 fcd_24" vType="passenger" speedFactor="0.92" vaporized=""/>
    <tripinfo id="27" depart="27.00" departLane="195433863#2_1" departPos="5.10" departSpeed="0.00" departDelay="0.00" arrival="29.00" arrivalLane="195433863#2_1" arrivalPos="11.23" arrivalSpeed="4.23" duration="2.00" routeLength="6.13" waitingTime="0.00" waitingCount="0" stopTime="0.00" timeLoss="1.40" rerouteNo="0" devices="tripinfo_27 fcd_27" vType="passenger" speedFactor="0.93" vaporized=""/>
    <tripinfo id="31" depart="31.00" departLane="195433863#2_1" departPos="5.10" departSpeed="0.00" departDelay="0.00" arrival="36.00" arrivalLane="195433863#3_1" arrivalPos="6.52" arrivalSpeed="10.52" duration="5.00" routeLength="22.04" waitingTime="0.00" waitingCount="0" stopTime="0.00" timeLoss="2.61" rerouteNo="0" devices="tripinfo_31 fcd_31" vType="passenger" speedFactor="1.17" vaporized=""/>
    <tripinfo id="5" depart="5.00" departLane="1078778152#1_0" departPos="5.10" departSpeed="0.00" departDelay="0.00" arrival="39.00" arrivalLane="195433863#2_1" arrivalPos="11.23" arrivalSpeed="8.66" duration="34.00" routeLength="173.00" waitingTime="8.00" waitingCount="1" stopTime="0.00" timeLoss="16.45" rerouteNo="0" devices="tripinfo_5 fcd_5" vType="passenger" speedFactor="0.94" vaporized=""/>
    <tripinfo id="17" depart="20.00" departLane="195433863#1_1" departPos="5.10" departSpeed="0.00" departDelay="3.00" arrival="41.00" arrivalLane="195433863#2_1" arrivalPos="11.23" arrivalSpeed="10.20" duration="21.00" routeLength="69.58" waitingTime="8.00" waitingCount="1" stopTime="0.00" timeLoss="14.40" rerouteNo="0" devices="tripinfo_17 fcd_17" vType="passenger" speedFactor="1.02" vaporized=""/>
    <tripinfo id="3" depart="3.00" departLane="749905614#0_1" departPos="5.10" departSpeed="0.00" departDelay="0.00" arrival="42.00" arrivalLane="195433863#1_1" arrivalPos="58.27" arrivalSpeed="8.41" duration="39.00" routeLength="136.72" waitingTime="13.00" waitingCount="2" stopTime="0.00" timeLoss="26.65" rerouteNo="0" devices="tripinfo_3 fcd_3" vType="passenger" speedFactor="1.05" vaporized=""/>
    <tripinfo id="9" depart="9.00" departLane="749905614#0_1" departPos="5.10" departSpeed="0.00" departDelay="0.00" arrival="44.00" arrivalLane="195433863#1_1" arrivalPos="58.27" arrivalSpeed="9.10" duration="35.00" routeLength="136.72" waitingTime="8.00" waitingCount="3" stopTime="0.00" timeLoss="22.67" rerouteNo="0" devices="tripinfo_9 fcd_9" vType="passenger" speedFactor="1.05" vaporized=""/>
    <tripinfo id="37" depart="42.00" departLane="195433863#2_1" departPos="5.10" departSpeed="0.00" departDelay="5.00" arrival="45.00" arrivalLane="195433863#2_1" arrivalPos="11.23" arrivalSpeed="5.41" duration="3.00" routeLength="6.13" waitingTime="0.00" waitingCount="0" stopTime="0.00" timeLoss="1.90" rerouteNo="0" devices="tripinfo_37 fcd_37" vType="passenger" speedFactor="0.90" vaporized=""/>
    <tripinfo id="10" depart="12.00" departLane="749905614#0_1" departPos="5.10" departSpeed="0.00" departDelay="2.00" arrival="48.00" arrivalLane="195433863#3_1" arrivalPos="6.52" arrivalSpeed="11.69" duration="36.00" routeLength="169.04" waitingTime="4.00" waitingCount="1" stopTime="0.00" timeLoss="22.52" rerouteNo="0" devices="tripinfo_10 fcd_10" vType="passenger" speedFactor="1.12" vaporized=""/>
    <tripinfo id="12" depart="15.00" departLane="749905614#0_1" departPos="5.10" departSpeed="0.00" departDelay="3.00" arrival="49.00" arrivalLane="195433863#2_1" arrivalPos="11.23" arrivalSpeed="9.66" duration="34.00" routeLength="153.13" waitingTime="3.00" waitingCount="1" stopTime="0.00" timeLoss="19.08" rerouteNo="0" devices="tripinfo_12 fcd_12" vType="passenger" speedFactor="0.93" vaporized=""/>
    <tripinfo id="bus1" depart="40.00" departLane="195433863#1_0" departPos="12.10" departSpeed="0.00" departDelay="0.00" arrival="50.00" arrivalLane="195433863#1_0" arrivalPos="58.27" arrivalSpeed="9.78" duration="10.00" routeLength="46.17" waitingTime="0.00" waitingCount="0" stopTime="0.00" timeLoss="5.16" rerouteNo="0" devices="tripinfo_bus1 fcd_bus1" vType="bus_bus" speedFactor="1.00" vaporized=""/>
    <tripinfo id="14" depart="19.00" departLane="749905614#0_1" departPos="5.10" departSpeed="0.00" departDelay="5.00" arrival="51.00" arrivalLane="195433863#2_1" arrivalPos="11.23" arrivalSpeed="9.23" duration="32.00" routeLength="153.13" waitingTime="2.00" waitingCount="1" stopTime="0.00" timeLoss="17.33" rerouteNo="0" devices="tripinfo_14 fcd_14" vType="passenger" speedFactor="0.94" vaporized=""/>
    <tripinfo id="25" depart="42.00" departLane="195433863#1_1" departPos="5.10" departSpeed="0.00" departDelay="17.00" arrival="52.00" arrivalLane="195433863#1_1" arrivalPos="58.27" arrivalSpeed="10.54" duration="10.00" routeLength="53.17" waitingTime="1.00" waitingCount="1" stopTime="0.00" timeLoss="4.08" rerouteNo="0" devices="tripinfo_25 fcd_25" vType="passenger" speedFactor="0.95" vaporized=""/>
    <tripinfo id="6" depart="7.00" departLane="1078778152#1_0" departPos="5.10" departSpeed="0.00" departDelay="1.00" arrival="57.00" arrivalLane="195433863#1_1" arrivalPos="58.27" arrivalSpeed="8.48" duration="50.00" routeLength="156.59" waitingTime="24.00" waitingCount="1" stopTime="0.00" timeLoss="32.95" rerouteNo="0" devices="tripinfo_6 fcd_6" vType="passenger" speedFactor="0.86" vaporized=""/>
    <tripinfo id="41" depart="52.00" departLane="195433863#2_1" departPos="5.10" departSpeed="0.00" departDelay="11.00" arrival="57.00" arrivalLane="195433863#3_1" arrivalPos="6.52" arrivalSpeed="10.77" duration="5.00" routeLength="22.04" waitingTime="0.00" waitingCount="0" stopTime="0.00" timeLoss="2.35" rerouteNo="0" devices="tripinfo_41 fcd_41" vType="passenger" speedFactor="1.09" vaporized=""/>
    <tripinfo id="26" depart="47.00" departLane="195433863#1_1" departPos="5.10" departSpeed="0.00" departDelay="21.00" arrival="59.00" arrivalLane="195433863#3_1" arrivalPos="6.52" arrivalSpeed="11.39" duration="12.00" routeLength="85.49" waitingTime="0.00" waitingCount="0" stopTime="0.00" timeLoss="4.37" rerouteNo="0" devices="tripinfo_26 fcd_26" vType="passenger" speedFactor="1.13" vaporized=""/>
    <tripinfo id="51" depart="57.00" departLane="195433863#2_1" departPos="5.10" departSpeed="0.00" departDelay="6.00" arrival="60.00" arrivalLane="195433863#2_1" arrivalPos="11.23" arrivalSpeed="5.85" duration="3.00" routeLength="6.13" waitingTime="0.00" waitingCount="0" stopTime="0.00" timeLoss="2.02" rerouteNo="0" devices="tripinfo_51 fcd_51" vType="passenger" speedFactor="1.02" vaporized=""/>
    <tripinfo id="8" depart="9.00" departLane="1078778152#1_0" departPos="5.10" departSpeed="0.00" departDelay="1.00" arrival="62.00" arrivalLane="195433863#2_1" arrivalPos="11.23" arrivalSpeed="9.14" duration="53.00" routeLength="173.00" waitingTime="23.00" waitingCount="1" stopTime="0.00" timeLoss="36.98" rerouteNo="0" devices="tripinfo_8 fcd_8" vType="passenger" speedFactor="1.03" vaporized=""/>
    <tripinfo id="13" depart="13.00" departLane="1078778152#1_0" departPos="5.10" departSpeed="0.00" departDelay="0.00" arrival="62.00" arrivalLane="195433863#1_1" arrivalPos="58.27" arrivalSpeed="9.19" duration="49.00" routeLength="156.59" waitingTime="21.00" waitingCount="1" stopTime="0.00" timeLoss="32.36" rerouteNo="0" devices="tripinfo_13 fcd_13" vType="passenger" speedFactor="0.88" vaporized=""/>
    <tripinfo id="21" depart="21.00" departLane="1078778152#1_0" departPos="5.10" departSpeed="0.00" departDelay="0.00" arrival="65.00" arrivalLane="195433863#1_1" arrivalPos="58.27" arrivalSpeed="9.11" duration="44.00" routeLength="156.59" waitingTime="15.00" waitingCount="1" stopTime="0.00" timeLoss="27.66" rerouteNo="0" devices="tripinfo_21 fcd_21" vType="passenger" speedFactor="0.89" vaporized=""/>
    <tripinfo id="34" depart="61.00" departLane="195433863#1_1" departPos="5.10" departSpeed="0.00" departDelay="27.00" arrival="69.00" arrivalLane="195433863#1_1" arrivalPos="58.27" arrivalSpeed="10.26" duration="8.00" routeLength="53.17" waitingTime="0.00" waitingCount="0" stopTime="0.00" timeLoss="2.47" rerouteNo="0" devices="tripinfo_34 fcd_34" vType="passenger" speedFactor="0.97" vaporized=""/>
    <tripinfo id="15" depart="22.00" departLane="749905614#0_1" departPos="5.10" departSpeed="0.00" departDelay="7.00" arrival="74.00" arrivalLane="195433863#3_1" arrivalPos="6.52" arrivalSpeed="9.49" duration="52.00" routeLength="169.04" waitingTime="26.00" waitingCount="1" stopTime="0.00" timeLoss="35.53" rerouteNo="0" devices="tripinfo_15 fcd_15" vType="passenger" speedFactor="0.94" vaporized=""/>
    <tripinfo id="18" depart="25.00" departLane="749905614#0_1" departPos="5.10" departSpeed="0.00" departDelay="7.00" arrival="74.00" arrivalLane="195433863#2_1" arrivalPos="11.23" arrivalSpeed="10.88" duration="49.00" routeLength="153.13" waitingTime="24.00" waitingCount="1" stopTime="0.00" timeLoss="35.29" rerouteNo="0" devices="tripinfo_18 fcd_18" vType="passenger" speedFactor="1.01" vaporized=""/>
    <tripinfo id="19" depart="28.00" departLane="749905614#0_1" departPos="5.10" departSpeed="0.00" departDelay="9.00" arrival="76.00" arrivalLane="195433863#2_1" arrivalPos="11.23" arrivalSpeed="10.87" duration="48.00" routeLength="153.13" waitingTime="23.00" waitingCount="1" stopTime="0.00" timeLoss="33.72" rerouteNo="0" devices="tripinfo_19 fcd_19" vType="passenger" speedFactor="0.97" vaporized=""/>
    <tripinfo id="30" depart="31.00" departLane="749905614#0_1" departPos="5.10" departSpeed="0.00" departDelay="1.00" arrival="78.00" arrivalLane="195433863#2_1" arrivalPos="11.23" arrivalSpeed="10.15" duration="47.00" routeLength="153.13" waitingTime="22.00" waitingCount="1" stopTime="0.00" timeLoss="33.07" rerouteNo="0" devices="tripinfo_30 fcd_30" vType="passenger" speedFactor="1.01" vaporized=""/>
    <tripinfo id="36" depart="37.00" departLane="749905614#0_1" departPos="5.10" departSpeed="0.00" departDelay="1.00" arrival="80.00" arrivalLane="195433863#1_1" arrivalPos="58.27" arrivalSpeed="12.00" duration="43.00" routeLength="136.72" waitingTime="21.00" waitingCount="1" stopTime="0.00" timeLoss="31.74" rerouteNo="0" devices="tripinfo_36 fcd_36" vType="passenger" speedFactor="1.10" vaporized=""/>
    <tripinfo id="32" depart="34.00" departLane="749905614#0_1" departPos="5.10" departSpeed="0.00" departDelay="2.00" arrival="82.00" arrivalLane="195433863#3_1" arrivalPos="6.52" arrivalSpeed="9.89" duration="48.00" routeLength="169.04" waitingTime="22.00" waitingCount="1" stopTime="0.00" timeLoss="32.00" rerouteNo="0" devices="tripinfo_32 fcd_32" vType="passenger" speedFactor="0.99" vaporized=""/>
    <tripinfo id="38" depart="40.00" departLane="749905614#0_1" departPos="5.10" departSpeed="0.00" departDelay="2.00" arrival="85.00" arrivalLane="195433863#2_1" arrivalPos="11.23" arrivalSpeed="7.89" duration="45.00" routeLength="153.13" waitingTime="21.00" waitingCount="1" stopTime="0.00" timeLoss="31.48" rerouteNo="0" devices="tripinfo_38 fcd_38" vType="passenger" speedFactor="1.03" vaporized=""/>
    <tripinfo id="73" depart="80.00" departLane="195433863#2_1" departPos="5.10" departSpeed="0.00" departDelay="7.00" arrival="85.00" arrivalLane="195433863#3_1" arrivalPos="6.52" arrivalSpeed="8.62" duration="5.00" routeLength="22.04" waitingTime="0.00" waitingCount="0" stopTime="0.00" timeLoss="2.64" rerouteNo="0" devices="tripinfo_73 fcd_73" vType="passenger" speedFactor="0.94" vaporized=""/>
    <tripinfo id="43" depart="43.00" departLane="749905614#0_1" departPos="5.10" departSpeed="0.00" departDelay="0.00" arrival="87.00" arrivalLane="195433863#2_1" arrivalPos="11.23" arrivalSpeed="10.17" duration="44.00" routeLength="153.13" waitingTime="20.00" waitingCount="1" stopTime="0.00" timeLoss="30.52" rerouteNo="0" devices="tripinfo_43 fcd_43" vType="passenger" speedFactor="1.04" vaporized=""/>
    <tripinfo id="bus2" depart="80.00" departLane="195433863#2_0" departPos="11.23" departSpeed="0.00" departDelay="0.00" arrival="90.00" arrivalLane="195433863#3_1" arrivalPos="6.52" arrivalSpeed="2.50" duration="10.00" routeLength="15.91" waitingTime="1.00" waitingCount="1" stopTime="0.00" timeLoss="8.47" rerouteNo="0" devices="tripinfo_bus2 fcd_bus2" vType="bus_bus" speedFactor="1.00" vaporized=""/>
    <tripinfo id="90" depart="90.00" departLane="195433863#2_1" departPos="5.10" departSpeed="0.00" departDelay="0.00" arrival="95.00" arrivalLane="195433863#3_1" arrivalPos="6.52" arrivalSpeed="9.06" duration="5.00" routeLength="22.04" waitingTime="0.00" waitingCount="0" stopTime="0.00" timeLoss="2.73" rerouteNo="0" devices="tripinfo_90 fcd_90" vType="passenger" speedFactor="1.02" vaporized=""/>
    <tripinfo id="46" depart="70.00" departLane="749905614#0_1" departPos="5.10" departSpeed="0.00" departDelay="24.00" arrival="102.00" arrivalLane="195433863#2_1" arrivalPos="11.23" arrivalSpeed="8.18" duration="32.00" routeLength="153.13" waitingTime="9.00" waitingCount="1" stopTime="0.00" timeLoss="16.45" rerouteNo="0" devices="tripinfo_46 fcd_46" vType="passenger" speedFactor="0.90" vaporized=""/>
    <personinfo id="1" depart="50.00" type="DEFAULT_PEDTYPE" speedFactor="1.03" duration="54.00" waitingTime="0.00" timeLoss="9.90" traveltime="54.00">
        <walk depart="50.00" departPos="0.00" arrival="104.00" arrivalPos="37.89" duration="54.00" routeLength="63.11" timeLoss="9.90" maxSpeed="1.43"/>
    </personinfo>
    <tripinfo id="48" depart="74.00" departLane="749905614#0_1" departPos="5.10" departSpeed="0.00" departDelay="26.00" arrival="104.00" arrivalLane="195433863#2_1" arrivalPos="11.23" arrivalSpeed="8.72" duration="30.00" routeLength="153.13" waitingTime="6.00" waitingCount="1" stopTime="0.00" timeLoss="13.64" rerouteNo="0" devices="tripinfo_48 fcd_48" vType="passenger" speedFactor="0.85" vaporized=""/>
    <tripinfo id="55" depart="80.00" departLane="749905614#0_1" departPos="5.10" departSpeed="0.00" departDelay="25.00" arrival="107.00" arrivalLane="195433863#1_1" arrivalPos="58.27" arrivalSpeed="8.92" duration="27.00" routeLength="136.72" waitingTime="5.00" waitingCount="1" stopTime="0.00" timeLoss="12.53" rerouteNo="0" devices="tripinfo_55 fcd_55" vType="passenger" speedFactor="0.90" vaporized=""/>
    <tripinfo id="49" depart="77.00" departLane="749905614#0_1" departPos="5.10" departSpeed="0.00" departDelay="28.00" arrival="108.00" arrivalLane="195433863#3_1" arrivalPos="6.52" arrivalSpeed="8.28" duration="31.00" routeLength="169.04" waitingTime="5.00" waitingCount="1" stopTime="0.00" timeLoss="13.02" rerouteNo="0" devices="tripinfo_49 fcd_49" vType="passenger" speedFactor="0.85" vaporized=""/>
    <tripinfo id="39" depart="94.00" departLane="195433863#1_1" departPos="5.10" departSpeed="0.00" departDelay="55.00" arrival="110.00" arrivalLane="195433863#1_1" arrivalPos="58.27" arrivalSpeed="10.56" duration="16.00" routeLength="53.17" waitingTime="3.00" waitingCount="1" stopTime="0.00" timeLoss="11.02" rerouteNo="0" devices="tripinfo_39 fcd_39" vType="passenger" speedFactor="0.96" vaporized=""/>
    <tripinfo id="57" depart="83.00" departLane="749905614#0_1" departPos="5.10" departSpeed="0.00" departDelay="26.00" arrival="111.00" arrivalLane="195433863#3_1" arrivalPos="6.52" arrivalSpeed="11.50" duration="28.00" routeLength="169.04" waitingTime="4.00" waitingCount="1" stopTime="0.00" timeLoss="14.43" rerouteNo="0" devices="tripinfo_57 fcd_57" vType="passenger" speedFactor="1.14" vaporized=""/>
    <tripinfo id="42" depart="105.00" departLane="195433863#1_1" departPos="5.10" departSpeed="0.00" departDelay="63.00" arrival="115.00" arrivalLane="195433863#1_1" arrivalPos="58.27" arrivalSpeed="8.61" duration="10.00" routeLength="53.17" waitingTime="0.00" waitingCount="0" stopTime="0.00" timeLoss="5.06" rerouteNo="0" devices="tripinfo_42 fcd_42" vType="passenger" speedFactor="1.04" vaporized=""/>
    <tripinfo id="60" depart="86.00" departLane="749905614#0_1" departPos="5.10" departSpeed="0.00" departDelay="26.00" arrival="115.00" arrivalLane="195433863#2_1" arrivalPos="11.23" arrivalSpeed="10.61" duration="29.00" routeLength="153.13" waitingTime="2.00" waitingCount="1" stopTime="0.00" timeLoss="14.13" rerouteNo="0" devices="tripinfo_60 fcd_60" vType="passenger" speedFactor="0.97" vaporized=""/>
    <tripinfo id="108" depart="110.00" departLane="195433863#2_1" departPos="5.10" departSpeed="0.00" departDelay="2.00" arrival="115.00" arrivalLane="195433863#3_1" arrivalPos="6.52" arrivalSpeed="9.27" duration="5.00" routeLength="22.04" waitingTime="0.00" waitingCount="0" stopTime="0.00" timeLoss="2.51" rerouteNo="0" devices="tripinfo_108 fcd_108" vType="passenger" speedFactor="1.01" vaporized=""/>
    <tripinfo id="52" depart="109.00" departLane="195433863#1_1" departPos="5.10" departSpeed="0.00" departDelay="57.00" arrival="120.00" arrivalLane="195433863#2_1" arrivalPos="11.23" arrivalSpeed="11.41" duration="11.00" routeLength="69.58" waitingTime="0.00" waitingCount="0" stopTime="0.00" timeLoss="4.41" rerouteNo="0" devices="tripinfo_52 fcd_52" vType="passenger" speedFactor="1.10" vaporized=""/>
    <tripinfo id="111" depart="115.00" departLane="195433863#2_1" departPos="5.10" departSpeed="0.00" departDelay="4.00" arrival="120.00" arrivalLane="195433863#3_1" arrivalPos="6.52" arrivalSpeed="9.58" duration="5.00" routeLength="22.04" waitingTime="0.00" waitingCount="0" stopTime="0.00" timeLoss="2.08" rerouteNo="0" devices="tripinfo_111 fcd_111" vType="passenger" speedFactor="0.96" vaporized=""/>
    <tripinfo id="23" depart="24.00" departLane="1078778152#1_0" departPos="5.10" departSpeed="0.00" departDelay="1.00" arrival="123.00" arrivalLane="195433863#1_1" arrivalPos="58.27" arrivalSpeed="9.57" duration="99.00" routeLength="156.59" waitingTime="63.00" waitingCount="2" stopTime="0.00" timeLoss="81.63" rerouteNo="0" devices="tripinfo_23 fcd_23" vType="passenger" speedFactor="0.87" vaporized=""/>
    <tripinfo id="54" depart="112.00" departLane="195433863#1_1" departPos="5.10" departSpeed="0.00" departDelay="58.00" arrival="123.00" arrivalLane="195433863#3_1" arrivalPos="6.52" arrivalSpeed="11.02" duration="11.00" routeLength="85.49" waitingTime="0.00" waitingCount="0" stopTime="0.00" timeLoss="3.05" rerouteNo="0" devices="tripinfo_54 fcd_54" vType="passenger" speedFactor="1.00" vaporized=""/>
    <tripinfo id="22" depart="22.00" departLane="1078778152#1_0" departPos="5.10" departSpeed="0.00" departDelay="0.00" arrival="125.00" arrivalLane="195433863#1_1" arrivalPos="58.27" arrivalSpeed="8.84" duration="103.00" routeLength="156.59" waitingTime="62.00" waitingCount="3" stopTime="0.00" timeLoss="85.18" rerouteNo="0" devices="tripinfo_22 fcd_22" vType="passenger" speedFactor="0.83" vaporized=""/>
    <tripinfo id="113" depart="123.00" departLane="195433863#2_1" departPos="5.10" departSpeed="0.00" departDelay="10.00" arrival="128.00" arrivalLane="195433863#3_1" arrivalPos="6.52" arrivalSpeed="8.84" duration="5.00" routeLength="22.04" waitingTime="0.00" waitingCount="0" stopTime="0.00" timeLoss="2.20" rerouteNo="0" devices="tripinfo_113 fcd_113" vType="passenger" speedFactor="0.87" vaporized=""/>
    <tripinfo id="116" depart="126.00" departLane="195433863#2_1" departPos="5.10" departSpeed="0.00" departDelay="10.00" arrival="130.00" arrivalLane="195433863#3_1" arrivalPos="6.52" arrivalSpeed="8.24" duration="4.00" routeLength="22.04" waitingTime="0.00" waitingCount="0" stopTime="0.00" timeLoss="2.14" rerouteNo="0" devices="tripinfo_116 fcd_116" vType="passenger" speedFactor="1.10" vaporized=""/>
    <tripinfo id="119" depart="129.00" departLane="195433863#2_1" departPos="5.10" departSpeed="0.00" departDelay="10.00" arrival="132.00" arrivalLane="195433863#2_1" arrivalPos="11.23" arrivalSpeed="6.10" duration="3.00" routeLength="6.13" waitingTime="0.00" waitingCount="0" stopTime="0.00" timeLoss="2.00" rerouteNo="0" devices="tripinfo_119 fcd_119" vType="passenger" speedFactor="1.00" vaporized=""/>
    <tripinfo id="121" depart="132.00" departLane="195433863#2_1" departPos="5.10" departSpeed="0.00" departDelay="11.00" arrival="137.00" arrivalLane="195433863#3_1" arrivalPos="6.52" arrivalSpeed="10.25" duration="5.00" routeLength="22.04" waitingTime="0.00" waitingCount="0" stopTime="0.00" timeLoss="2.36" rerouteNo="0" devices="tripinfo_121 fcd_121" vType="passenger" speedFactor="1.07" vaporized=""/>
    <tripinfo id="133" depart="135.00" departLane="195433863#2_1" departPos="5.10" departSpeed="0.00" departDelay="2.00" arrival="140.00" arrivalLane="195433863#3_1" arrivalPos="6.52" arrivalSpeed="10.97" duration="5.00" routeLength="22.04" waitingTime="0.00" waitingCount="0" stopTime="0.00" timeLoss="2.38" rerouteNo="0" devices="tripinfo_133 fcd_133" vType="passenger" speedFactor="1.03" vaporized=""/>
    <tripinfo id="58" depart="121.00" departLane="195433863#1_1" departPos="5.10" departSpeed="0.00" departDelay="63.00" arrival="143.00" arrivalLane="195433863#2_1" arrivalPos="11.23" arrivalSpeed="7.46" duration="22.00" routeLength="69.58" waitingTime="9.00" waitingCount="1" stopTime="0.00" timeLoss="15.92" rerouteNo="0" devices="tripinfo_58 fcd_58" vType="passenger" speedFactor="1.02" vaporized=""/>
    <tripinfo id="136" depart="138.00" departLane="195433863#2_1" departPos="5.10" departSpeed="0.00" departDelay="2.00" arrival="143.00" arrivalLane="195433863#3_1" arrivalPos="6.52" arrivalSpeed="9.89" duration="5.00" routeLength="22.04" waitingTime="0.00" waitingCount="0" stopTime="0.00" timeLoss="2.15" rerouteNo="0" devices="tripinfo_136 fcd_136" vType="passenger" speedFactor="0.96" vaporized=""/>
    <tripinfo id="62" depart="69.00" departLane="1078778152#1_0" departPos="5.10" departSpeed="0.00" departDelay="7.00" arrival="144.00" arrivalLane="195433863#1_1" arrivalPos="58.27" arrivalSpeed="6.15" duration="75.00" routeLength="156.59" waitingTime="42.00" waitingCount="3" stopTime="0.00" timeLoss="61.73" rerouteNo="0" devices="tripinfo_62 fcd_62" vType="passenger" speedFactor="1.12" vaporized=""/>
    <personinfo id="2" depart="100.00" type="DEFAULT_PEDTYPE" speedFactor="1.07" duration="48.00" waitingTime="0.00" timeLoss="10.15" traveltime="48.00">
        <walk depart="100.00" departPos="0.00" arrival="148.00" arrivalPos="15.99" duration="48.00" routeLength="56.13" timeLoss="10.15" maxSpeed="1.48"/>
    </personinfo>
    <tripinfo id="28" depart="28.00" departLane="1078778152#1_0" departPos="5.10" departSpeed="0.00" departDelay="0.00" arrival="149.00" arrivalLane="195433863#3_1" arrivalPos="6.52" arrivalSpeed="12.77" duration="121.00" routeLength="188.91" waitingTime="70.00" waitingCount="5" stopTime="0.00" timeLoss="106.17" rerouteNo="0" devices="tripinfo_28 fcd_28" vType="passenger" speedFactor="1.18" vaporized=""/>
    <tripinfo id="29" depart="29.00" departLane="1078778152#1_0" departPos="5.10" departSpeed="0.00" departDelay="0.00" arrival="152.00" arrivalLane="195433863#2_1" arrivalPos="11.23" arrivalSpeed="11.57" duration="123.00" routeLength="173.00" waitingTime="69.00" waitingCount="6" stopTime="0.00" timeLoss="109.03" rerouteNo="0" devices="tripinfo_29 fcd_29" vType="passenger" speedFactor="1.15" vaporized=""/>
    <tripinfo id="33" depart="33.00" departLane="1078778152#1_0" departPos="5.10" departSpeed="0.00" departDelay="0.00" arrival="152.00" arrivalLane="195433863#1_1" arrivalPos="58.27" arrivalSpeed="11.19" duration="119.00" routeLength="156.59" waitingTime="62.00" waitingCount="5" stopTime="0.00" timeLoss="104.70" rerouteNo="0" devices="tripinfo_33 fcd_33" vType="passenger" speedFactor="1.02" vaporized=""/>
    <tripinfo id="63" depart="72.00" departLane="1078778152#1_0" departPos="5.10" departSpeed="0.00" departDelay="9.00" arrival="152.00" arrivalLane="195433863#3_1" arrivalPos="6.52" arrivalSpeed="10.94" duration="80.00" routeLength="188.91" waitingTime="41.00" waitingCount="3" stopTime="0.00" timeLoss="62.31" rerouteNo="0" devices="tripinfo_63 fcd_63" vType="passenger" speedFactor="1.02" vaporized=""/>
    <personinfo id="0" depart="0.00" type="DEFAULT_PEDTYPE" speedFactor="1.08" duration="155.00" waitingTime="0.00" timeLoss="65.48" traveltime="155.00">
        <walk depart="0.00" departPos="0.00" arrival="155.00" arrivalPos="0.69" duration="155.00" routeLength="134.62" timeLoss="65.48" maxSpeed="1.50"/>
    </personinfo>
    <tripinfo id="147" depart="152.00" departLane="195433863#2_1" departPos="5.10" departSpeed="0.00" departDelay="5.00" arrival="155.00" arrivalLane="195433863#2_1" arrivalPos="11.23" arrivalSpeed="4.86" duration="3.00" routeLength="6.13" waitingTime="0.00" waitingCount="0" stopTime="0.00" timeLoss="2.21" rerouteNo="0" devices="tripinfo_147 fcd_147" vType="passenger" speedFactor="1.11" vaporized=""/>
    <tripinfo id="65" depart="147.00" departLane="195433863#1_1" departPos="5.10" departSpeed="0.00" departDelay="82.00" arrival="157.00" arrivalLane="195433863#1_1" arrivalPos="58.27" arrivalSpeed="8.46" duration="10.00" routeLength="53.17" waitingTime="0.00" waitingCount="0" stopTime="0.00" timeLoss="4.56" rerouteNo="0" devices="tripinfo_65 fcd_65" vType="passenger" speedFactor="0.94" vaporized=""/>
    <tripinfo id="67" depart="75.00" departLane="1078778152#1_0" departPos="5.10" departSpeed="0.00" departDelay="8.00" arrival="157.00" arrivalLane="195433863#2_1" arrivalPos="11.23" arrivalSpeed="8.86" duration="82.00" routeLength="173.00" waitingTime="44.00" waitingCount="4" stopTime="0.00" timeLoss="63.81" rerouteNo="0" devices="tripinfo_67 fcd_67" vType="passenger" speedFactor="0.91" vaporized=""/>
    <tripinfo id="68" depart="78.00" departLane="1078778152#1_0" departPos="5.10" departSpeed="0.00" departDelay="10.00" arrival="162.00" arrivalLane="195433863#3_1" arrivalPos="6.52" arrivalSpeed="9.87" duration="84.00" routeLength="188.91" waitingTime="46.00" waitingCount="4" stopTime="0.00" timeLoss="64.77" rerouteNo="0" devices="tripinfo_68 fcd_68" vType="passenger" speedFactor="0.91" vaporized=""/>