<?xml version="1.0" encoding="UTF-8"?>

<!-- generated on 2025-04-08 18:42:32 by Eclipse SUMO sumo Version 1.20.0
<configuration xmlns:xsi="http://www.w3.org/2001/XMLSchema-instance" xsi:noNamespaceSchemaLocation="http://sumo.dlr.de/xsd/sumoConfiguration.xsd">

    <input>
        <net-file value="bancroft-telegraph.net.xml"/>
        <route-files value="simple.rou.xml"/>
    </input>

    <output>
        <fcd-output value="sumoTrace.xml"/>
        <queue-output value="queue-output.xml"/>
        <summary-output value="summary.xml"/>
        <tripinfo-output value="tripinfo.xml"/>
        <statistic-output value="stats.xml"/>
    </output>

    <time>
        <begin value="0"/>
        <end value="10000"/>
    </time>

</configuration>
-->

<tripinfos xmlns:xsi="http://www.w3.org/2001/XMLSchema-instance" xsi:noNamespaceSchemaLocation="http://sumo.dlr.de/xsd/tripinfo_file.xsd">
    <tripinfo id="f_0.0" depart="0.00" departLane="749905614#0_1" departPos="5.10" departSpeed="0.00" departDelay="0.00" arrival="15.00" arrivalLane="195433863#1_1" arrivalPos="58.27" arrivalSpeed="11.69" duration="15.00" routeLength="136.72" waitingTime="0.00" waitingCount="0" stopTime="0.00" timeLoss="2.55" rerouteNo="0" devices="tripinfo_f_0.0 routing_f_0.0 fcd_f_0.0" vType="DEFAULT_VEHTYPE" speedFactor="1.06" vaporized=""/>
    <tripinfo id="f_3.0" depart="0.00" departLane="749905614#0_0" departPos="12.10" departSpeed="0.00" departDelay="0.00" arrival="18.00" arrivalLane="195433863#1_0" arrivalPos="58.27" arrivalSpeed="10.76" duration="18.00" routeLength="129.72" waitingTime="0.00" waitingCount="0" stopTime="0.00" timeLoss="5.98" rerouteNo="0" devices="tripinfo_f_3.0 routing_f_3.0 fcd_f_3.0" vType="Bus" speedFactor="1.00" vaporized=""/>
    <tripinfo id="f_0.1" depart="12.00" departLane="749905614#0_1" departPos="5.10" departSpeed="0.00" departDelay="0.00" arrival="27.00" arrivalLane="195433863#1_1" arrivalPos="58.27" arrivalSpeed="12.10" duration="15.00" routeLength="136.72" waitingTime="0.00" waitingCount="0" stopTime="0.00" timeLoss="2.92" rerouteNo="0" devices="tripinfo_f_0.1 routing_f_0.1 fcd_f_0.1" vType="DEFAULT_VEHTYPE" speedFactor="1.08" vaporized=""/>
    <tripinfo id="f_0.2" depart="24.00" departLane="749905614#0_1" departPos="5.10" departSpeed="0.00" departDelay="0.00" arrival="39.00" arrivalLane="195433863#1_1" arrivalPos="58.27" arrivalSpeed="10.71" duration="15.00" routeLength="136.72" waitingTime="0.00" waitingCount="0" stopTime="0.00" timeLoss="3.21" rerouteNo="0" devices="tripinfo_f_0.2 routing_f_0.2 fcd_f_0.2" vType="DEFAULT_VEHTYPE" speedFactor="1.05" vaporized=""/>
    <tripinfo id="f_1.0" depart="0.00" departLane="1078778152#1_0" departPos="5.10" departSpeed="0.00" departDelay="0.00" arrival="56.00" arrivalLane="195433863#1_1" arrivalPos="58.27" arrivalSpeed="9.83" duration="56.00" routeLength="156.59" waitingTime="33.00" waitingCount="1" stopTime="0.00" timeLoss="40.44" rerouteNo="0" devices="tripinfo_f_1.0 routing_f_1.0 fcd_f_1.0" vType="DEFAULT_VEHTYPE" speedFactor="0.94" vaporized=""/>
    <tripinfo id="f_2.0" depart="2.00" departLane="1078778152#1_0" departPos="5.10" departSpeed="0.00" departDelay="2.00" arrival="58.00" arrivalLane="195433863#1_1" arrivalPos="58.27" arrivalSpeed="10.24" duration="56.00" routeLength="156.59" waitingTime="32.00" waitingCount="1" stopTime="0.00" timeLoss="41.21" rerouteNo="0" devices="tripinfo_f_2.0 routing_f_2.0 fcd_f_2.0" vType="DEFAULT_VEHTYPE" speedFactor="1.01" vaporized=""/>
    <tripinfo id="f_1.1" depart="12.00" departLane="1078778152#1_0" departPos="5.10" departSpeed="0.00" departDelay="0.00" arrival="60.00" arrivalLane="195433863#1_1" arrivalPos="58.27" arrivalSpeed="10.56" duration="48.00" routeLength="156.59" waitingTime="24.00" waitingCount="1" stopTime="0.00" timeLoss="33.78" rerouteNo="0" devices="tripinfo_f_1.1 routing_f_1.1 fcd_f_1.1" vType="DEFAULT_VEHTYPE" speedFactor="1.03" vaporized=""/>
    <tripinfo id="f_2.1" depart="14.00" departLane="1078778152#1_0" departPos="5.10" departSpeed="0.00" departDelay="2.00" arrival="64.00" arrivalLane="195433863#1_1" arrivalPos="58.27" arrivalSpeed="8.78" duration="50.00" routeLength="156.59" waitingTime="24.00" waitingCount="1" stopTime="0.00" timeLoss="32.38" rerouteNo="0" devices="tripinfo_f_2.1 routing_f_2.1 fcd_f_2.1" vType="DEFAULT_VEHTYPE" speedFactor="0.83" vaporized=""/>
    <tripinfo id="f_1.2" depart="24.00" departLane="1078778152#1_0" departPos="5.10" departSpeed="0.00" departDelay="0.00" arrival="66.00" arrivalLane="195433863#1_1" arrivalPos="58.27" arrivalSpeed="9.32" duration="42.00" routeLength="156.59" waitingTime="16.00" waitingCount="1" stopTime="0.00" timeLoss="25.32" rerouteNo="0" devices="tripinfo_f_1.2 routing_f_1.2 fcd_f_1.2" vType="DEFAULT_VEHTYPE" speedFactor="0.89" vaporized=""/>
    <tripinfo id="f_2.2" depart="25.00" departLane="1078778152#1_0" departPos="5.10" departSpeed="0.00" departDelay="1.00" arrival="68.00" arrivalLane="195433863#1_1" arrivalPos="58.27" arrivalSpeed="9.79" duration="43.00" routeLength="156.59" waitingTime="15.00" waitingCount="2" stopTime="0.00" timeLoss="27.37" rerouteNo="0" devices="tripinfo_f_2.2 routing_f_2.2 fcd_f_2.2" vType="DEFAULT_VEHTYPE" speedFactor="0.94" vaporized=""/>
    <tripinfo id="f_1.3" depart="36.00" departLane="1078778152#1_0" departPos="5.10" departSpeed="0.00" departDelay="0.00" arrival="70.00" arrivalLane="195433863#1_1" arrivalPos="58.27" arrivalSpeed="11.98" duration="34.00" routeLength="156.59" waitingTime="9.00" waitingCount="1" stopTime="0.00" timeLoss="20.15" rerouteNo="0" devices="tripinfo_f_1.3 routing_f_1.3 fcd_f_1.3" vType="DEFAULT_VEHTYPE" speedFactor="1.09" vaporized=""/>
    <tripinfo id="f_2.3" depart="37.00" departLane="1078778152#1_0" departPos="5.10" departSpeed="0.00" departDelay="1.00" arrival="72.00" arrivalLane="195433863#1_1" arrivalPos="58.27" arrivalSpeed="10.78" duration="35.00" routeLength="156.59" waitingTime="8.00" waitingCount="2" stopTime="0.00" timeLoss="20.47" rerouteNo="0" devices="tripinfo_f_2.3 routing_f_2.3 fcd_f_2.3" vType="DEFAULT_VEHTYPE" speedFactor="1.03" vaporized=""/>
    <tripinfo id="f_1.4" depart="48.00" departLane="1078778152#1_0" departPos="5.10" departSpeed="0.00" departDelay="0.00" arrival="74.00" arrivalLane="195433863#1_1" arrivalPos="58.27" arrivalSpeed="11.70" duration="26.00" routeLength="156.59" waitingTime="0.00" waitingCount="0" stopTime="0.00" timeLoss="12.78" rerouteNo="0" devices="tripinfo_f_1.4 routing_f_1.4 fcd_f_1.4" vType="DEFAULT_VEHTYPE" speedFactor="1.12" vaporized=""/>
    <tripinfo id="f_2.4" depart="49.00" departLane="1078778152#1_0" departPos="5.10" departSpeed="0.00" departDelay="1.00" arrival="77.00" arrivalLane="195433863#1_1" arrivalPos="58.27" arrivalSpeed="10.92" duration="28.00" routeLength="156.59" waitingTime="1.00" waitingCount="1" stopTime="0.00" timeLoss="12.50" rerouteNo="0" devices="tripinfo_f_2.4 routing_f_2.4 fcd_f_2.4" vType="DEFAULT_VEHTYPE" speedFactor="0.99" vaporized=""/>
    <tripinfo id="f_1.5" depart="60.00" departLane="1078778152#1_0" departPos="5.10" departSpeed="0.00" departDelay="0.00" arrival="80.00" arrivalLane="195433863#1_1" arrivalPos="58.27" arrivalSpeed="9.30" duration="20.00" routeLength="156.59" waitingTime="0.00" waitingCount="0" stopTime="0.00" timeLoss="3.48" rerouteNo="0" devices="tripinfo_f_1.5 routing_f_1.5 fcd_f_1.5" vType="DEFAULT_VEHTYPE" speedFactor="0.88" vaporized=""/>
    <tripinfo id="f_2.5" depart="61.00" departLane="1078778152#1_0" departPos="5.10" departSpeed="0.00" departDelay="1.00" arrival="83.00" arrivalLane="195433863#1_1" arrivalPos="58.27" arrivalSpeed="10.31" duration="22.00" routeLength="156.59" waitingTime="0.00" waitingCount="0" stopTime="0.00" timeLoss="5.80" rerouteNo="0" devices="tripinfo_f_2.5 routing_f_2.5 fcd_f_2.5" vType="DEFAULT_VEHTYPE" speedFactor="0.94" vaporized=""/>
    <tripinfo id="f_1.6" depart="72.00" departLane="1078778152#1_0" departPos="5.10" departSpeed="0.00" departDelay="0.00" arrival="89.00" arrivalLane="195433863#1_1" arrivalPos="58.27" arrivalSpeed="12.26" duration="17.00" routeLength="156.59" waitingTime="0.00" waitingCount="0" stopTime="0.00" timeLoss="3.72" rerouteNo="0" devices="tripinfo_f_1.6 routing_f_1.6 fcd_f_1.6" vType="DEFAULT_VEHTYPE" speedFactor="1.16" vaporized=""/>
    <tripinfo id="f_0.3" depart="36.00" departLane="749905614#0_1" departPos="5.10" departSpeed="0.00" departDelay="0.00" arrival="100.00" arrivalLane="195433863#1_1" arrivalPos="58.27" arrivalSpeed="8.93" duration="64.00" routeLength="136.72" waitingTime="44.00" waitingCount="1" stopTime="0.00" timeLoss="49.61" rerouteNo="0" devices="tripinfo_f_0.3 routing_f_0.3 fcd_f_0.3" vType="DEFAULT_VEHTYPE" speedFactor="0.86" vaporized=""/>
    <tripinfo id="f_0.4" depart="48.00" departLane="749905614#0_1" departPos="5.10" departSpeed="0.00" departDelay="0.00" arrival="102.00" arrivalLane="195433863#1_1" arrivalPos="58.27" arrivalSpeed="11.52" duration="54.00" routeLength="136.72" waitingTime="34.00" waitingCount="1" stopTime="0.00" timeLoss="41.85" rerouteNo="0" devices="tripinfo_f_0.4 routing_f_0.4 fcd_f_0.4" vType="DEFAULT_VEHTYPE" speedFactor="1.05" vaporized=""/>
    <tripinfo id="f_0.5" depart="60.00" departLane="749905614#0_1" departPos="5.10" departSpeed="0.00" departDelay="0.00" arrival="104.00" arrivalLane="195433863#1_1" arrivalPos="58.27" arrivalSpeed="9.36" duration="44.00" routeLength="136.72" waitingTime="21.00" waitingCount="1" stopTime="0.00" timeLoss="30.77" rerouteNo="0" devices="tripinfo_f_0.5 routing_f_0.5 fcd_f_0.5" vType="DEFAULT_VEHTYPE" speedFactor="0.93" vaporized=""/>
    <tripinfo id="f_0.6" depart="72.00" departLane="749905614#0_1" departPos="5.10" departSpeed="0.00" departDelay="0.00" arrival="106.00" arrivalLane="195433863#1_1" arrivalPos="58.27" arrivalSpeed="9.47" duration="34.00" routeLength="136.72" waitingTime="13.00" waitingCount="1" stopTime="0.00" timeLoss="20.85" rerouteNo="0" devices="tripinfo_f_0.6 routing_f_0.6 fcd_f_0.6" vType="DEFAULT_VEHTYPE" speedFactor="0.94" vaporized=""/>
    <tripinfo id="f_0.7" depart="84.00" departLane="749905614#0_1" departPos="5.10" departSpeed="0.00" departDelay="0.00" arrival="108.00" arrivalLane="195433863#1_1" arrivalPos="58.27" arrivalSpeed="10.97" duration="24.00" routeLength="136.72" waitingTime="1.00" waitingCount="1" stopTime="0.00" timeLoss="11.58" rerouteNo="0" devices="tripinfo_f_0.7 routing_f_0.7 fcd_f_0.7" vType="DEFAULT_VEHTYPE" speedFactor="1.01" vaporized=""/>
    <tripinfo id="f_0.8" depart="96.00" departLane="749905614#0_1" departPos="5.10" departSpeed="0.00" departDelay="0.00" arrival="114.00" arrivalLane="195433863#1_1" arrivalPos="58.27" arrivalSpeed="8.14" duration="18.00" routeLength="136.72" waitingTime="0.00" waitingCount="0" stopTime="0.00" timeLoss="2.51" rerouteNo="0" devices="tripinfo_f_0.8 routing_f_0.8 fcd_f_0.8" vType="DEFAULT_VEHTYPE" speedFactor="0.83" vaporized=""/>
    <tripinfo id="f_0.9" depart="108.00" departLane="749905614#0_1" departPos="5.10" departSpeed="0.00" departDelay="0.00" arrival="125.00" arrivalLane="195433863#1_1" arrivalPos="58.27" arrivalSpeed="9.94" duration="17.00" routeLength="136.72" waitingTime="0.00" waitingCount="0" stopTime="0.00" timeLoss="3.41" rerouteNo="0" devices="tripinfo_f_0.9 routing_f_0.9 fcd_f_0.9" vType="DEFAULT_VEHTYPE" speedFactor="0.95" vaporized=""/>
    <tripinfo id="f_0.10" depart="120.00" departLane="749905614#0_1" departPos="5.10" departSpeed="0.00" departDelay="0.00" arrival="134.00" arrivalLane="195433863#1_1" arrivalPos="58.27" arrivalSpeed="11.97" duration="14.00" routeLength="136.72" waitingTime="0.00" waitingCount="0" stopTime="0.00" timeLoss="3.33" rerouteNo="0" devices="tripinfo_f_0.10 routing_f_0.10 fcd_f_0.10" vType="DEFAULT_VEHTYPE" speedFactor="1.18" vaporized=""/>
    <tripinfo id="f_3.1" depart="120.00" departLane="749905614#0_0" departPos="12.10" departSpeed="0.00" departDelay="0.00" arrival="137.00" arrivalLane="195433863#1_0" arrivalPos="58.27" arrivalSpeed="10.72" duration="17.00" routeLength="129.72" waitingTime="0.00" waitingCount="0" stopTime="0.00" timeLoss="5.33" rerouteNo="0" devices="tripinfo_f_3.1 routing_f_3.1 fcd_f_3.1" vType="Bus" speedFactor="1.00" vaporized=""/>
    <tripinfo id="f_2.6" depart="74.00" departLane="1078778152#1_0" departPos="5.10" departSpeed="0.00" departDelay="2.00" arrival="146.00" arrivalLane="195433863#1_1" arrivalPos="58.27" arrivalSpeed="11.15" duration="72.00" routeLength="156.59" waitingTime="49.00" waitingCount="1" stopTime="0.00" timeLoss="57.42" rerouteNo="0" devices="tripinfo_f_2.6 routing_f_2.6 fcd_f_2.6" vType="DEFAULT_VEHTYPE" speedFactor="1.02" vaporized=""/>
    <tripinfo id="f_1.7" depart="84.00" departLane="1078778152#1_0" departPos="5.10" departSpeed="0.00" departDelay="0.00" arrival="148.00" arrivalLane="195433863#1_1" arrivalPos="58.27" arrivalSpeed="10.85" duration="64.00" routeLength="156.59" waitingTime="42.00" waitingCount="1" stopTime="0.00" timeLoss="48.96" rerouteNo="0" devices="tripinfo_f_1.7 routing_f_1.7 fcd_f_1.7" vType="DEFAULT_VEHTYPE" speedFactor="0.97" vaporized=""/>
    <tripinfo id="f_2.7" depart="86.00" departLane="1078778152#1_0" departPos="5.10" departSpeed="0.00" departDelay="2.00" arrival="152.00" arrivalLane="195433863#1_1" arrivalPos="58.27" arrivalSpeed="9.42" duration="66.00" routeLength="156.59" waitingTime="40.00" waitingCount="1" stopTime="0.00" timeLoss="48.91" rerouteNo="0" devices="tripinfo_f_2.7 routing_f_2.7 fcd_f_2.7" vType="DEFAULT_VEHTYPE" speedFactor="0.89" vaporized=""/>
    <tripinfo id="f_1.8" depart="96.00" departLane="1078778152#1_0" departPos="5.10" departSpeed="0.00" departDelay="0.00" arrival="154.00" arrivalLane="195433863#1_1" arrivalPos="58.27" arrivalSpeed="8.49" duration="58.00" routeLength="156.59" waitingTime="33.00" waitingCount="1" stopTime="0.00" timeLoss="40.85" rerouteNo="0" devices="tripinfo_f_1.8 routing_f_1.8 fcd_f_1.8" vType="DEFAULT_VEHTYPE" speedFactor="0.87" vaporized=""/>
    <tripinfo id="f_2.8" depart="97.00" departLane="1078778152#1_0" departPos="5.10" departSpeed="0.00" departDelay="1.00" arrival="156.00" arrivalLane="195433863#1_1" arrivalPos="58.27" arrivalSpeed="9.74" duration="59.00" routeLength="156.59" waitingTime="31.00" waitingCount="1" stopTime="0.00" timeLoss="42.88" rerouteNo="0" devices="tripinfo_f_2.8 routing_f_2.8 fcd_f_2.8" vType="DEFAULT_VEHTYPE" speedFactor="0.92" vaporized=""/>
    <tripinfo id="f_1.9" depart="108.00" departLane="1078778152#1_0" departPos="5.10" departSpeed="0.00" departDelay="0.00" arrival="158.00" arrivalLane="195433863#1_1" arrivalPos="58.27" arrivalSpeed="12.15" duration="50.00" routeLength="156.59" waitingTime="24.00" waitingCount="1" stopTime="0.00" timeLoss="36.62" rerouteNo="0" devices="tripinfo_f_1.9 routing_f_1.9 fcd_f_1.9" vType="DEFAULT_VEHTYPE" speedFactor="1.13" vaporized=""/>
    <tripinfo id="f_2.9" depart="109.00" departLane="1078778152#1_0" departPos="5.10" departSpeed="0.00" departDelay="1.00" arrival="160.00" arrivalLane="195433863#1_1" arrivalPos="58.27" arrivalSpeed="9.57" duration="51.00" routeLength="156.59" waitingTime="23.00" waitingCount="2" stopTime="0.00" timeLoss="35.47" rerouteNo="0" devices="tripinfo_f_2.9 routing_f_2.9 fcd_f_2.9" vType="DEFAULT_VEHTYPE" speedFactor="0.93" vaporized=""/>
    <tripinfo id="f_1.10" depart="120.00" departLane="1078778152#1_0" departPos="5.10" departSpeed="0.00" departDelay="0.00" arrival="162.00" arrivalLane="195433863#1_1" arrivalPos="58.27" arrivalSpeed="12.59" duration="42.00" routeLength="156.59" waitingTime="16.00" waitingCount="1" stopTime="0.00" timeLoss="29.00" rerouteNo="0" devices="tripinfo_f_1.10 routing_f_1.10 fcd_f_1.10" vType="DEFAULT_VEHTYPE" speedFactor="1.15" vaporized=""/>
    <tripinfo id="f_1.12" depart="144.00" departLane="1078778152#1_0" departPos="5.10" departSpeed="0.00" departDelay="0.00" arrival="164.00" arrivalLane="195433863#1_1" arrivalPos="58.27" arrivalSpeed="12.23" duration="20.00" routeLength="156.59" waitingTime="0.00" waitingCount="0" stopTime="0.00" timeLoss="7.21" rerouteNo="0" devices="tripinfo_f_1.12 routing_f_1.12 fcd_f_1.12" vType="DEFAULT_VEHTYPE" speedFactor="1.18" vaporized=""/>
    <tripinfo id="f_2.10" depart="121.00" departLane="1078778152#1_0" departPos="5.10" departSpeed="0.00" departDelay="1.00" arrival="167.00" arrivalLane="195433863#1_1" arrivalPos="58.27" arrivalSpeed="10.82" duration="46.00" routeLength="156.59" waitingTime="15.00" waitingCount="2" stopTime="0.00" timeLoss="30.63" rerouteNo="0" devices="tripinfo_f_2.10 routing_f_2.10 fcd_f_2.10" vType="DEFAULT_VEHTYPE" speedFactor="1.01" vaporized=""/>
    <tripinfo id="f_2.12" depart="147.00" departLane="1078778152#1_0" departPos="5.10" departSpeed="0.00" departDelay="3.00" arrival="168.00" arrivalLane="195433863#1_1" arrivalPos="58.27" arrivalSpeed="11.61" duration="21.00" routeLength="156.59" waitingTime="0.00" waitingCount="0" stopTime="0.00" timeLoss="7.73" rerouteNo="0" devices="tripinfo_f_2.12 routing_f_2.12 fcd_f_2.12" vType="DEFAULT_VEHTYPE" speedFactor="1.10" vaporized=""/>
    <tripinfo id="f_1.11" depart="132.00" departLane="1078778152#1_0" departPos="5.10" departSpeed="0.00" departDelay="0.00" arrival="172.00" arrivalLane="195433863#1_1" arrivalPos="58.27" arrivalSpeed="10.03" duration="40.00" routeLength="156.59" waitingTime="8.00" waitingCount="1" stopTime="0.00" timeLoss="24.98" rerouteNo="0" devices="tripinfo_f_1.11 routing_f_1.11 fcd_f_1.11" vType="DEFAULT_VEHTYPE" speedFactor="0.99" vaporized=""/>
    <tripinfo id="f_2.11" depart="133.00" departLane="1078778152#1_0" departPos="5.10" departSpeed="0.00" departDelay="1.00" arrival="174.00" arrivalLane="195433863#1_1" arrivalPos="58.27" arrivalSpeed="10.79" duration="41.00" routeLength="156.59" waitingTime="8.00" waitingCount="1" stopTime="0.00" timeLoss="26.29" rerouteNo="0" devices="tripinfo_f_2.11 routing_f_2.11 fcd_f_2.11" vType="DEFAULT_VEHTYPE" speedFactor="1.02" vaporized=""/>
    <tripinfo id="f_1.13" depart="156.00" departLane="1078778152#1_0" departPos="5.10" departSpeed="0.00" departDelay="0.00" arrival="176.00" arrivalLane="195433863#1_1" arrivalPos="58.27" arrivalSpeed="10.66" duration="20.00" routeLength="156.59" waitingTime="0.00" waitingCount="0" stopTime="0.00" timeLoss="5.41" rerouteNo="0" devices="tripinfo_f_1.13 routing_f_1.13 fcd_f_1.13" vType="DEFAULT_VEHTYPE" speedFactor="1.03" vaporized=""/>
    <tripinfo id="f_2.13" depart="157.00" departLane="1078778152#1_0" departPos="5.10" departSpeed="0.00" departDelay="1.00" arrival="179.00" arrivalLane="195433863#1_1" arrivalPos="58.27" arrivalSpeed="9.76" duration="22.00" routeLength="156.59" waitingTime="0.00" waitingCount="0" stopTime="0.00" timeLoss="6.29" rerouteNo="0" devices="tripinfo_f_2.13 routing_f_2.13 fcd_f_2.13" vType="DEFAULT_VEHTYPE" speedFactor="0.96" vaporized=""/>
    <tripinfo id="f_0.11" depart="132.00" departLane="749905614#0_1" departPos="5.10" departSpeed="0.00" departDelay="0.00" arrival="189.00" arrivalLane="195433863#1_1" arrivalPos="58.27" arrivalSpeed="12.96" duration="57.00" routeLength="136.72" waitingTime="39.00" waitingCount="1" stopTime="0.00" timeLoss="45.69" rerouteNo="0" devices="tripinfo_f_0.11 routing_f_0.11 fcd_f_0.11" vType="DEFAULT_VEHTYPE" speedFactor="1.17" vaporized=""/>
    <tripinfo id="f_0.12" depart="144.00" departLane="749905614#0_1" departPos="5.10" departSpeed="0.00" departDelay="0.00" arrival="191.00" arrivalLane="195433863#1_1" arrivalPos="58.27" arrivalSpeed="10.58" duration="47.00" routeLength="136.72" waitingTime="26.00" waitingCount="1" stopTime="0.00" timeLoss="34.28" rerouteNo="0" devices="tripinfo_f_0.12 routing_f_0.12 fcd_f_0.12" vType="DEFAULT_VEHTYPE" speedFactor="0.97" vaporized=""/>
    <tripinfo id="f_0.13" depart="156.00" departLane="749905614#0_1" departPos="5.10" departSpeed="0.00" departDelay="0.00" arrival="194.00" arrivalLane="195433863#1_1" arrivalPos="58.27" arrivalSpeed="9.85" duration="38.00" routeLength="136.72" waitingTime="16.00" waitingCount="1" stopTime="0.00" timeLoss="23.58" rerouteNo="0" devices="tripinfo_f_0.13 routing_f_0.13 fcd_f_0.13" vType="DEFAULT_VEHTYPE" speedFactor="0.90" vaporized=""/>
    <tripinfo id="f_0.14" depart="168.00" departLane="749905614#0_1" departPos="5.10" departSpeed="0.00" departDelay="0.00" arrival="196.00" arrivalLane="195433863#1_1" arrivalPos="58.27" arrivalSpeed="12.09" duration="28.00" routeLength="136.72" waitingTime="5.00" waitingCount="1" stopTime="0.00" timeLoss="15.84" rerouteNo="0" devices="tripinfo_f_0.14 routing_f_0.14 fcd_f_0.14" vType="DEFAULT_VEHTYPE" speedFactor="1.09" vaporized=""/>
    <tripinfo id="f_0.15" depart="180.00" departLane="749905614#0_1" departPos="5.10" departSpeed="0.00" departDelay="0.00" arrival="197.00" arrivalLane="195433863#1_1" arrivalPos="58.27" arrivalSpeed="11.34" duration="17.00" routeLength="136.72" waitingTime="0.00" waitingCount="0" stopTime="0.00" timeLoss="5.71" rerouteNo="0" devices="tripinfo_f_0.15 routing_f_0.15 fcd_f_0.15" vType="DEFAULT_VEHTYPE" speedFactor="1.09" vaporized=""/>
    <tripinfo id="f_0.16" depart="192.00" departLane="749905614#0_1" departPos="5.10" departSpeed="0.00" departDelay="0.00" arrival="209.00" arrivalLane="195433863#1_1" arrivalPos="58.27" arrivalSpeed="9.42" duration="17.00" routeLength="136.72" waitingTime="0.00" waitingCount="0" stopTime="0.00" timeLoss="2.72" rerouteNo="0" devices="tripinfo_f_0.16 routing_f_0.16 fcd_f_0.16" vType="DEFAULT_VEHTYPE" speedFactor="0.88" vaporized=""/>
    <tripinfo id="f_0.17" depart="204.00" departLane="749905614#0_1" departPos="5.10" departSpeed="0.00" departDelay="0.00" arrival="218.00" arrivalLane="195433863#1_1" arrivalPos="58.27" arrivalSpeed="12.59" duration="14.00" routeLength="136.72" waitingTime="0.00" waitingCount="0" stopTime="0.00" timeLoss="3.05" rerouteNo="0" devices="tripinfo_f_0.17 routing_f_0.17 fcd_f_0.17" vType="DEFAULT_VEHTYPE" speedFactor="1.17" vaporized=""/>
    <tripinfo id="f_1.14" depart="168.00" departLane="1078778152#1_0" departPos="5.10" departSpeed="0.00" departDelay="0.00" arrival="236.00" arrivalLane="195433863#1_1" arrivalPos="58.27" arrivalSpeed="11.01" duration="68.00" routeLength="156.59" waitingTime="46.00" waitingCount="1" stopTime="0.00" timeLoss="53.20" rerouteNo="0" devices="tripinfo_f_1.14 routing_f_1.14 fcd_f_1.14" vType="DEFAULT_VEHTYPE" speedFactor="1.04" vaporized=""/>
    <tripinfo id="f_2.14" depart="170.00" departLane="1078778152#1_0" departPos="5.10" departSpeed="0.00" departDelay="2.00" arrival="238.00" arrivalLane="195433863#1_1" arrivalPos="58.27" arrivalSpeed="11.16" duration="68.00" routeLength="156.59" waitingTime="45.00" waitingCount="1" stopTime="0.00" timeLoss="53.64" rerouteNo="0" devices="tripinfo_f_2.14 routing_f_2.14 fcd_f_2.14" vType="DEFAULT_VEHTYPE" speedFactor="1.04" vaporized=""/>
    <tripinfo id="f_1.15" depart="180.00" departLane="1078778152#1_0" departPos="5.10" departSpeed="0.00" departDelay="0.00" arrival="240.00" arrivalLane="195433863#1_1" arrivalPos="58.27" arrivalSpeed="10.69" duration="60.00" routeLength="156.59" waitingTime="37.00" waitingCount="1" stopTime="0.00" timeLoss="45.51" rerouteNo="0" devices="tripinfo_f_1.15 routing_f_1.15 fcd_f_1.15" vType="DEFAULT_VEHTYPE" speedFactor="1.00" vaporized=""/>
    <tripinfo id="f_2.15" depart="182.00" departLane="1078778152#1_0" departPos="5.10" departSpeed="0.00" departDelay="2.00" arrival="244.00" arrivalLane="195433863#1_1" arrivalPos="58.27" arrivalSpeed="8.83" duration="62.00" routeLength="156.59" waitingTime="34.00" waitingCount="1" stopTime="0.00" timeLoss="45.49" rerouteNo="0" devices="tripinfo_f_2.15 routing_f_2.15 fcd_f_2.15" vType="DEFAULT_VEHTYPE" speedFactor="0.90" vaporized=""/>
    <tripinfo id="f_1.16" depart="192.00" departLane="1078778152#1_0" departPos="5.10" departSpeed="0.00" departDelay="0.00" arrival="247.00" arrivalLane="195433863#1_1" arrivalPos="58.27" arrivalSpeed="9.47" duration="55.00" routeLength="156.59" waitingTime="29.00" waitingCount="1" stopTime="0.00" timeLoss="37.42" rerouteNo="0" devices="tripinfo_f_1.16 routing_f_1.16 fcd_f_1.16" vType="DEFAULT_VEHTYPE" speedFactor="0.85" vaporized=""/>
    <tripinfo id="f_2.16" depart="193.00" departLane="1078778152#1_0" departPos="5.10" departSpeed="0.00" departDelay="1.00" arrival="250.00" arrivalLane="195433863#1_1" arrivalPos="58.27" arrivalSpeed="8.26" duration="57.00" routeLength="156.59" waitingTime="28.00" waitingCount="2" stopTime="0.00" timeLoss="39.05" rerouteNo="0" devices="tripinfo_f_2.16 routing_f_2.16 fcd_f_2.16" vType="DEFAULT_VEHTYPE" speedFactor="0.85" vaporized=""/>
    <tripinfo id="f_1.17" depart="204.00" departLane="1078778152#1_0" departPos="5.10" departSpeed="0.00" departDelay="0.00" arrival="251.00" arrivalLane="195433863#1_1" arrivalPos="58.27" arrivalSpeed="10.71" duration="47.00" routeLength="156.59" waitingTime="21.00" waitingCount="1" stopTime="0.00" timeLoss="32.56" rerouteNo="0" devices="tripinfo_f_1.17 routing_f_1.17 fcd_f_1.17" vType="DEFAULT_VEHTYPE" speedFactor="1.02" vaporized=""/>
    <tripinfo id="f_2.17" depart="205.00" departLane="1078778152#1_0" departPos="5.10" departSpeed="0.00" departDelay="1.00" arrival="253.00" arrivalLane="195433863#1_1" arrivalPos="58.27" arrivalSpeed="10.97" duration="48.00" routeLength="156.59" waitingTime="21.00" waitingCount="2" stopTime="0.00" timeLoss="34.61" rerouteNo="0" devices="tripinfo_f_2.17 routing_f_2.17 fcd_f_2.17" vType="DEFAULT_VEHTYPE" speedFactor="1.10" vaporized=""/>
    <tripinfo id="f_1.18" depart="216.00" departLane="1078778152#1_0" departPos="5.10" departSpeed="0.00" departDelay="0.00" arrival="255.00" arrivalLane="195433863#1_1" arrivalPos="58.27" arrivalSpeed="10.06" duration="39.00" routeLength="156.59" waitingTime="13.00" waitingCount="1" stopTime="0.00" timeLoss="24.24" rerouteNo="0" devices="tripinfo_f_1.18 routing_f_1.18 fcd_f_1.18" vType="DEFAULT_VEHTYPE" speedFactor="1.00" vaporized=""/>
    <tripinfo id="f_2.18" depart="217.00" departLane="1078778152#1_0" departPos="5.10" departSpeed="0.00" departDelay="1.00" arrival="258.00" arrivalLane="195433863#1_1" arrivalPos="58.27" arrivalSpeed="9.70" duration="41.00" routeLength="156.59" waitingTime="12.00" waitingCount="2" stopTime="0.00" timeLoss="24.40" rerouteNo="0" devices="tripinfo_f_2.18 routing_f_2.18 fcd_f_2.18" vType="DEFAULT_VEHTYPE" speedFactor="0.90" vaporized=""/>
    <tripinfo id="f_1.19" depart="228.00" departLane="1078778152#1_0" departPos="5.10" departSpeed="0.00" departDelay="0.00" arrival="260.00" arrivalLane="195433863#1_1" arrivalPos="58.27" arrivalSpeed="11.17" duration="32.00" routeLength="156.59" waitingTime="5.00" waitingCount="1" stopTime="0.00" timeLoss="17.35" rerouteNo="0" devices="tripinfo_f_1.19 routing_f_1.19 fcd_f_1.19" vType="DEFAULT_VEHTYPE" speedFactor="1.02" vaporized=""/>
    <tripinfo id="f_1.20" depart="240.00" departLane="1078778152#1_0" departPos="5.10" departSpeed="0.00" departDelay="0.00" arrival="262.00" arrivalLane="195433863#1_1" arrivalPos="58.27" arrivalSpeed="11.90" duration="22.00" routeLength="156.59" waitingTime="0.00" waitingCount="0" stopTime="0.00" timeLoss="8.41" rerouteNo="0" devices="tripinfo_f_1.20 routing_f_1.20 fcd_f_1.20" vType="DEFAULT_VEHTYPE" speedFactor="1.12" vaporized=""/>
    <tripinfo id="f_2.20" depart="243.00" departLane="1078778152#1_0" departPos="5.10" departSpeed="0.00" departDelay="3.00" arrival="264.00" arrivalLane="195433863#1_1" arrivalPos="58.27" arrivalSpeed="10.32" duration="21.00" routeLength="156.59" waitingTime="0.00" waitingCount="0" stopTime="0.00" timeLoss="6.13" rerouteNo="0" devices="tripinfo_f_2.20 routing_f_2.20 fcd_f_2.20" vType="DEFAULT_VEHTYPE" speedFactor="1.02" vaporized=""/>
    <tripinfo id="f_2.19" depart="229.00" departLane="1078778152#1_0" departPos="5.10" departSpeed="0.00" departDelay="1.00" arrival="266.00" arrivalLane="195433863#1_1" arrivalPos="58.27" arrivalSpeed="9.88" duration="37.00" routeLength="156.59" waitingTime="9.00" waitingCount="1" stopTime="0.00" timeLoss="21.93" rerouteNo="0" devices="tripinfo_f_2.19 routing_f_2.19 fcd_f_2.19" vType="DEFAULT_VEHTYPE" speedFactor="0.97" vaporized=""/>
    <tripinfo id="f_1.21" depart="252.00" departLane="1078778152#1_0" departPos="5.10" departSpeed="0.00" departDelay="0.00" arrival="272.00" arrivalLane="195433863#1_1" arrivalPos="58.27" arrivalSpeed="10.20" duration="20.00" routeLength="156.59" waitingTime="0.00" waitingCount="0" stopTime="0.00" timeLoss="3.78" rerouteNo="0" devices="tripinfo_f_1.21 routing_f_1.21 fcd_f_1.21" vType="DEFAULT_VEHTYPE" speedFactor="0.94" vaporized=""/>
    <tripinfo id="f_0.18" depart="216.00" departLane="749905614#0_1" departPos="5.10" departSpeed="0.00" departDelay="0.00" arrival="279.00" arrivalLane="195433863#1_1" arrivalPos="58.27" arrivalSpeed="10.43" duration="63.00" routeLength="136.72" waitingTime="43.00" waitingCount="1" stopTime="0.00" timeLoss="50.16" rerouteNo="0" devices="tripinfo_f_0.18 routing_f_0.18 fcd_f_0.18" vType="DEFAULT_VEHTYPE" speedFactor="1.00" vaporized=""/>
    <tripinfo id="f_0.19" depart="228.00" departLane="749905614#0_1" departPos="5.10" departSpeed="0.00" departDelay="0.00" arrival="281.00" arrivalLane="195433863#1_1" arrivalPos="58.27" arrivalSpeed="12.70" duration="53.00" routeLength="136.72" waitingTime="34.00" waitingCount="1" stopTime="0.00" timeLoss="41.48" rerouteNo="0" devices="tripinfo_f_0.19 routing_f_0.19 fcd_f_0.19" vType="DEFAULT_VEHTYPE" speedFactor="1.14" vaporized=""/>
    <tripinfo id="f_3.2" depart="240.00" departLane="749905614#0_0" departPos="12.10" departSpeed="0.00" departDelay="0.00" arrival="282.00" arrivalLane="195433863#1_0" arrivalPos="58.27" arrivalSpeed="10.75" duration="42.00" routeLength="129.72" waitingTime="16.00" waitingCount="1" stopTime="0.00" timeLoss="29.87" rerouteNo="0" devices="tripinfo_f_3.2 routing_f_3.2 fcd_f_3.2" vType="Bus" speedFactor="1.00" vaporized=""/>