<?xml version="1.0" encoding="UTF-8"?>

<!-- generated on 2025-04-08 18:38:27 by Eclipse SUMO sumo Version 1.20.0
<configuration xmlns:xsi="http://www.w3.org/2001/XMLSchema-instance" xsi:noNamespaceSchemaLocation="http://sumo.dlr.de/xsd/sumoConfiguration.xsd">

    <input>
        <net-file value="shattuck-university.net.xml"/>
        <route-files value="simple.rou.xml"/>
    </input>

    <output>
        <fcd-output value="sumoTrace.xml"/>
        <queue-output value="queue-output.xml"/>
        <summary-output value="summary.xml"/>
        <tripinfo-output value="tripinfo.xml"/>
        <statistic-output value="stats.xml"/>
    </output>

    <time>
        <begin value="0"/>
        <end value="10000"/>
    </time>

</configuration>
-->

<tripinfos xmlns:xsi="http://www.w3.org/2001/XMLSchema-instance" xsi:noNamespaceSchemaLocation="http://sumo.dlr.de/xsd/tripinfo_file.xsd">
    <tripinfo id="f_3.0" depart="0.00" departLane="25738780#0_0" departPos="5.10" departSpeed="0.00" departDelay="0.00" arrival="21.00" arrivalLane="22277726#0_0" arrivalPos="83.47" arrivalSpeed="11.13" duration="21.00" routeLength="180.02" waitingTime="0.00" waitingCount="0" stopTime="0.00" timeLoss="4.04" rerouteNo="0" devices="tripinfo_f_3.0 routing_f_3.0 fcd_f_3.0" vType="DEFAULT_VEHTYPE" speedFactor="1.03" vaporized=""/>
    <tripinfo id="f_10.0" depart="0.00" departLane="-1022312150_0" departPos="5.10" departSpeed="0.00" departDelay="0.00" arrival="22.00" arrivalLane="25738794#0_0" arrivalPos="90.88" arrivalSpeed="10.32" duration="22.00" routeLength="173.31" waitingTime="0.00" waitingCount="0" stopTime="0.00" timeLoss="3.98" rerouteNo="0" devices="tripinfo_f_10.0 routing_f_10.0 fcd_f_10.0" vType="DEFAULT_VEHTYPE" speedFactor="0.94" vaporized=""/>
    <tripinfo id="f_5.0" depart="6.00" departLane="25738780#0_0" departPos="5.10" departSpeed="0.00" departDelay="6.00" arrival="26.00" arrivalLane="26379240#0_1" arrivalPos="75.05" arrivalSpeed="11.19" duration="20.00" routeLength="186.78" waitingTime="0.00" waitingCount="0" stopTime="0.00" timeLoss="3.63" rerouteNo="0" devices="tripinfo_f_5.0 routing_f_5.0 fcd_f_5.0" vType="DEFAULT_VEHTYPE" speedFactor="1.05" vaporized=""/>
    <tripinfo id="f_4.0" depart="3.00" departLane="25738780#0_0" departPos="5.10" departSpeed="0.00" departDelay="3.00" arrival="29.00" arrivalLane="1082634545#0_0" arrivalPos="88.51" arrivalSpeed="8.44" duration="26.00" routeLength="198.76" waitingTime="0.00" waitingCount="0" stopTime="0.00" timeLoss="3.86" rerouteNo="0" devices="tripinfo_f_4.0 routing_f_4.0 fcd_f_4.0" vType="DEFAULT_VEHTYPE" speedFactor="0.83" vaporized=""/>
    <tripinfo id="f_6.0" depart="8.00" departLane="25738780#0_0" departPos="12.10" departSpeed="0.00" departDelay="8.00" arrival="31.00" arrivalLane="26379240#0_1" arrivalPos="75.05" arrivalSpeed="10.63" duration="23.00" routeLength="179.78" waitingTime="0.00" waitingCount="0" stopTime="0.00" timeLoss="6.18" rerouteNo="0" devices="tripinfo_f_6.0 routing_f_6.0 fcd_f_6.0" vType="pt_bus" speedFactor="1.00" vaporized=""/>
    <tripinfo id="f_0.0" depart="0.00" departLane="-22277726#1_0" departPos="5.10" departSpeed="0.00" departDelay="0.00" arrival="51.00" arrivalLane="1082634545#0_0" arrivalPos="88.51" arrivalSpeed="11.58" duration="51.00" routeLength="179.95" waitingTime="29.00" waitingCount="1" stopTime="0.00" timeLoss="34.98" rerouteNo="0" devices="tripinfo_f_0.0 routing_f_0.0 fcd_f_0.0" vType="DEFAULT_VEHTYPE" speedFactor="1.06" vaporized=""/>
    <tripinfo id="f_13.0" depart="0.00" departLane="771466844#2_0" departPos="12.10" departSpeed="0.00" departDelay="0.00" arrival="53.00" arrivalLane="26379240#0_0" arrivalPos="75.05" arrivalSpeed="11.06" duration="53.00" routeLength="160.68" waitingTime="23.00" waitingCount="1" stopTime="0.00" timeLoss="37.78" rerouteNo="1" devices="tripinfo_f_13.0 routing_f_13.0 fcd_f_13.0" vType="pt_bus" speedFactor="1.00" vaporized=""/>
    <tripinfo id="f_7.0" depart="4.00" departLane="771466844#2_0" departPos="5.10" departSpeed="0.00" departDelay="4.00" arrival="53.00" arrivalLane="22277726#0_1" arrivalPos="83.47" arrivalSpeed="9.29" duration="49.00" routeLength="191.19" waitingTime="22.00" waitingCount="1" stopTime="0.00" timeLoss="29.21" rerouteNo="1" devices="tripinfo_f_7.0 routing_f_7.0 fcd_f_7.0" vType="DEFAULT_VEHTYPE" speedFactor="0.89" vaporized=""/>
    <tripinfo id="f_9.0" depart="10.00" departLane="771466844#2_0" departPos="5.10" departSpeed="0.00" departDelay="10.00" arrival="54.00" arrivalLane="25738794#0_0" arrivalPos="90.88" arrivalSpeed="8.30" duration="44.00" routeLength="197.23" waitingTime="16.00" waitingCount="1" stopTime="0.00" timeLoss="23.08" rerouteNo="1" devices="tripinfo_f_9.0 routing_f_9.0 fcd_f_9.0" vType="DEFAULT_VEHTYPE" speedFactor="0.86" vaporized=""/>
    <tripinfo id="f_7.1" depart="24.00" departLane="771466844#2_0" departPos="5.10" departSpeed="0.00" departDelay="0.00" arrival="55.00" arrivalLane="22277726#0_1" arrivalPos="83.47" arrivalSpeed="10.34" duration="31.00" routeLength="191.19" waitingTime="4.00" waitingCount="1" stopTime="0.00" timeLoss="13.64" rerouteNo="1" devices="tripinfo_f_7.1 routing_f_7.1 fcd_f_7.1" vType="DEFAULT_VEHTYPE" speedFactor="1.03" vaporized=""/>
    <tripinfo id="f_8.0" depart="7.00" departLane="771466844#2_0" departPos="5.10" departSpeed="0.00" departDelay="7.00" arrival="56.00" arrivalLane="26379240#0_0" arrivalPos="75.05" arrivalSpeed="9.37" duration="49.00" routeLength="167.68" waitingTime="22.00" waitingCount="1" stopTime="0.00" timeLoss="31.91" rerouteNo="1" devices="tripinfo_f_8.0 routing_f_8.0 fcd_f_8.0" vType="DEFAULT_VEHTYPE" speedFactor="0.94" vaporized=""/>
    <tripinfo id="f_8.1" depart="26.00" departLane="771466844#2_0" departPos="5.10" departSpeed="0.00" departDelay="2.00" arrival="58.00" arrivalLane="26379240#0_0" arrivalPos="75.05" arrivalSpeed="10.81" duration="32.00" routeLength="167.68" waitingTime="5.00" waitingCount="1" stopTime="0.00" timeLoss="16.79" rerouteNo="1" devices="tripinfo_f_8.1 routing_f_8.1 fcd_f_8.1" vType="DEFAULT_VEHTYPE" speedFactor="1.05" vaporized=""/>
    <tripinfo id="f_7.2" depart="48.00" departLane="771466844#2_0" departPos="5.10" departSpeed="0.00" departDelay="0.00" arrival="67.00" arrivalLane="22277726#0_1" arrivalPos="83.47" arrivalSpeed="11.90" duration="19.00" routeLength="191.19" waitingTime="0.00" waitingCount="0" stopTime="0.00" timeLoss="3.29" rerouteNo="1" devices="tripinfo_f_7.2 routing_f_7.2 fcd_f_7.2" vType="DEFAULT_VEHTYPE" speedFactor="1.16" vaporized=""/>
    <tripinfo id="f_8.2" depart="50.00" departLane="771466844#2_0" departPos="5.10" departSpeed="0.00" departDelay="2.00" arrival="70.00" arrivalLane="26379240#0_0" arrivalPos="75.05" arrivalSpeed="11.34" duration="20.00" routeLength="167.68" waitingTime="0.00" waitingCount="0" stopTime="0.00" timeLoss="4.06" rerouteNo="1" devices="tripinfo_f_8.2 routing_f_8.2 fcd_f_8.2" vType="DEFAULT_VEHTYPE" speedFactor="1.02" vaporized=""/>
    <tripinfo id="f_9.1" depart="53.00" departLane="771466844#2_0" departPos="5.10" departSpeed="0.00" departDelay="5.00" arrival="75.00" arrivalLane="25738794#0_0" arrivalPos="90.88" arrivalSpeed="10.19" duration="22.00" routeLength="197.23" waitingTime="0.00" waitingCount="0" stopTime="0.00" timeLoss="3.80" rerouteNo="1" devices="tripinfo_f_9.1 routing_f_9.1 fcd_f_9.1" vType="DEFAULT_VEHTYPE" speedFactor="1.01" vaporized=""/>
    <tripinfo id="f_2.0" depart="9.00" departLane="-22277726#1_0" departPos="5.10" departSpeed="0.00" departDelay="9.00" arrival="91.00" arrivalLane="26379240#0_0" arrivalPos="75.05" arrivalSpeed="11.48" duration="82.00" routeLength="182.72" waitingTime="53.00" waitingCount="2" stopTime="0.00" timeLoss="66.23" rerouteNo="0" devices="tripinfo_f_2.0 routing_f_2.0 fcd_f_2.0" vType="DEFAULT_VEHTYPE" speedFactor="1.08" vaporized=""/>
    <tripinfo id="f_11.0" depart="3.00" departLane="-1022312150_0" departPos="5.10" departSpeed="0.00" departDelay="3.00" arrival="92.00" arrivalLane="22277726#0_0" arrivalPos="83.47" arrivalSpeed="11.03" duration="89.00" routeLength="182.12" waitingTime="64.00" waitingCount="1" stopTime="0.00" timeLoss="72.73" rerouteNo="0" devices="tripinfo_f_11.0 routing_f_11.0 fcd_f_11.0" vType="DEFAULT_VEHTYPE" speedFactor="1.01" vaporized=""/>
    <tripinfo id="f_0.1" depart="36.00" departLane="-22277726#1_0" departPos="5.10" departSpeed="0.00" departDelay="0.00" arrival="92.00" arrivalLane="1082634545#0_0" arrivalPos="88.51" arrivalSpeed="12.14" duration="56.00" routeLength="179.95" waitingTime="33.00" waitingCount="1" stopTime="0.00" timeLoss="41.12" rerouteNo="0" devices="tripinfo_f_0.1 routing_f_0.1 fcd_f_0.1" vType="DEFAULT_VEHTYPE" speedFactor="1.12" vaporized=""/>
    <tripinfo id="f_1.0" depart="1.00" departLane="-22277726#1_0" departPos="0.00" departSpeed="0.00" departDelay="1.00" arrival="94.00" arrivalLane="26379240#0_0" arrivalPos="75.05" arrivalSpeed="10.74" duration="93.00" routeLength="187.82" waitingTime="62.00" waitingCount="2" stopTime="0.00" timeLoss="76.13" rerouteNo="0" devices="tripinfo_f_1.0 routing_f_1.0 fcd_f_1.0" vType="pt_bus" speedFactor="1.00" vaporized=""/>
    <tripinfo id="f_11.1" depart="24.00" departLane="-1022312150_0" departPos="5.10" departSpeed="0.00" departDelay="0.00" arrival="94.00" arrivalLane="22277726#0_0" arrivalPos="83.47" arrivalSpeed="11.18" duration="70.00" routeLength="182.12" waitingTime="47.00" waitingCount="1" stopTime="0.00" timeLoss="54.76" rerouteNo="0" devices="tripinfo_f_11.1 routing_f_11.1 fcd_f_11.1" vType="DEFAULT_VEHTYPE" speedFactor="1.09" vaporized=""/>
    <tripinfo id="f_12.0" depart="7.00" departLane="-1022312150_0" departPos="12.10" departSpeed="0.00" departDelay="7.00" arrival="96.00" arrivalLane="22277726#0_1" arrivalPos="83.47" arrivalSpeed="10.67" duration="89.00" routeLength="175.12" waitingTime="58.00" waitingCount="1" stopTime="0.00" timeLoss="72.48" rerouteNo="0" devices="tripinfo_f_12.0 routing_f_12.0 fcd_f_12.0" vType="pt_bus" speedFactor="1.00" vaporized=""/>
    <tripinfo id="f_2.1" depart="39.00" departLane="-22277726#1_0" departPos="5.10" departSpeed="0.00" departDelay="3.00" arrival="96.00" arrivalLane="26379240#0_1" arrivalPos="75.05" arrivalSpeed="9.79" duration="57.00" routeLength="182.72" waitingTime="30.00" waitingCount="1" stopTime="0.00" timeLoss="40.12" rerouteNo="0" devices="tripinfo_f_2.1 routing_f_2.1 fcd_f_2.1" vType="DEFAULT_VEHTYPE" speedFactor="0.99" vaporized=""/>
    <tripinfo id="f_0.2" depart="72.00" departLane="-22277726#1_0" departPos="5.10" departSpeed="0.00" departDelay="0.00" arrival="96.00" arrivalLane="1082634545#0_0" arrivalPos="88.51" arrivalSpeed="10.05" duration="24.00" routeLength="179.95" waitingTime="0.00" waitingCount="0" stopTime="0.00" timeLoss="6.57" rerouteNo="0" devices="tripinfo_f_0.2 routing_f_0.2 fcd_f_0.2" vType="DEFAULT_VEHTYPE" speedFactor="0.97" vaporized=""/>
    <tripinfo id="f_10.1" depart="48.00" departLane="-1022312150_0" departPos="5.10" departSpeed="0.00" departDelay="0.00" arrival="98.00" arrivalLane="25738794#0_0" arrivalPos="90.88" arrivalSpeed="9.11" duration="50.00" routeLength="173.31" waitingTime="24.00" waitingCount="1" stopTime="0.00" timeLoss="31.09" rerouteNo="0" devices="tripinfo_f_10.1 routing_f_10.1 fcd_f_10.1" vType="DEFAULT_VEHTYPE" speedFactor="0.88" vaporized=""/>
    <tripinfo id="f_11.2" depart="51.00" departLane="-1022312150_0" departPos="5.10" departSpeed="0.00" departDelay="3.00" arrival="99.00" arrivalLane="22277726#0_1" arrivalPos="83.47" arrivalSpeed="9.68" duration="48.00" routeLength="182.12" waitingTime="19.00" waitingCount="1" stopTime="0.00" timeLoss="29.81" rerouteNo="0" devices="tripinfo_f_11.2 routing_f_11.2 fcd_f_11.2" vType="DEFAULT_VEHTYPE" speedFactor="0.94" vaporized=""/>
    <tripinfo id="f_2.2" depart="75.00" departLane="-22277726#1_0" departPos="5.10" departSpeed="0.00" departDelay="3.00" arrival="99.00" arrivalLane="26379240#0_0" arrivalPos="75.05" arrivalSpeed="8.01" duration="24.00" routeLength="182.72" waitingTime="0.00" waitingCount="0" stopTime="0.00" timeLoss="4.15" rerouteNo="0" devices="tripinfo_f_2.2 routing_f_2.2 fcd_f_2.2" vType="DEFAULT_VEHTYPE" speedFactor="0.83" vaporized=""/>
    <tripinfo id="f_11.3" depart="72.00" departLane="-1022312150_0" departPos="5.10" departSpeed="0.00" departDelay="0.00" arrival="101.00" arrivalLane="22277726#0_1" arrivalPos="83.47" arrivalSpeed="8.76" duration="29.00" routeLength="182.12" waitingTime="0.00" waitingCount="0" stopTime="0.00" timeLoss="10.40" rerouteNo="0" devices="tripinfo_f_11.3 routing_f_11.3 fcd_f_11.3" vType="DEFAULT_VEHTYPE" speedFactor="0.89" vaporized=""/>
    <tripinfo id="f_5.1" depart="36.00" departLane="25738780#0_0" departPos="5.10" departSpeed="0.00" departDelay="0.00" arrival="104.00" arrivalLane="26379240#0_1" arrivalPos="75.05" arrivalSpeed="9.82" duration="68.00" routeLength="186.78" waitingTime="41.00" waitingCount="1" stopTime="0.00" timeLoss="49.17" rerouteNo="0" devices="tripinfo_f_5.1 routing_f_5.1 fcd_f_5.1" vType="DEFAULT_VEHTYPE" speedFactor="0.93" vaporized=""/>
    <tripinfo id="f_4.1" depart="48.00" departLane="25738780#0_0" departPos="5.10" departSpeed="0.00" departDelay="0.00" arrival="105.00" arrivalLane="1082634545#0_0" arrivalPos="88.51" arrivalSpeed="9.54" duration="57.00" routeLength="198.76" waitingTime="30.00" waitingCount="1" stopTime="0.00" timeLoss="37.21" rerouteNo="0" devices="tripinfo_f_4.1 routing_f_4.1 fcd_f_4.1" vType="DEFAULT_VEHTYPE" speedFactor="0.94" vaporized=""/>
    <tripinfo id="f_5.2" depart="72.00" departLane="25738780#0_0" departPos="5.10" departSpeed="0.00" departDelay="0.00" arrival="107.00" arrivalLane="26379240#0_1" arrivalPos="75.05" arrivalSpeed="8.93" duration="35.00" routeLength="186.78" waitingTime="7.00" waitingCount="1" stopTime="0.00" timeLoss="14.97" rerouteNo="0" devices="tripinfo_f_5.2 routing_f_5.2 fcd_f_5.2" vType="DEFAULT_VEHTYPE" speedFactor="0.87" vaporized=""/>
    <tripinfo id="f_3.1" depart="90.00" departLane="25738780#0_0" departPos="5.10" departSpeed="0.00" departDelay="0.00" arrival="109.00" arrivalLane="22277726#0_0" arrivalPos="83.47" arrivalSpeed="11.76" duration="19.00" routeLength="180.02" waitingTime="0.00" waitingCount="0" stopTime="0.00" timeLoss="4.16" rerouteNo="0" devices="tripinfo_f_3.1 routing_f_3.1 fcd_f_3.1" vType="DEFAULT_VEHTYPE" speedFactor="1.13" vaporized=""/>
    <tripinfo id="f_4.2" depart="96.00" departLane="25738780#0_0" departPos="5.10" departSpeed="0.00" departDelay="0.00" arrival="115.00" arrivalLane="1082634545#0_0" arrivalPos="88.51" arrivalSpeed="12.33" duration="19.00" routeLength="198.76" waitingTime="0.00" waitingCount="0" stopTime="0.00" timeLoss="3.52" rerouteNo="0" devices="tripinfo_f_4.2 routing_f_4.2 fcd_f_4.2" vType="DEFAULT_VEHTYPE" speedFactor="1.15" vaporized=""/>
    <tripinfo id="f_10.2" depart="96.00" departLane="-1022312150_0" departPos="5.10" departSpeed="0.00" departDelay="0.00" arrival="117.00" arrivalLane="25738794#0_0" arrivalPos="90.88" arrivalSpeed="10.24" duration="21.00" routeLength="173.31" waitingTime="0.00" waitingCount="0" stopTime="0.00" timeLoss="3.79" rerouteNo="0" devices="tripinfo_f_10.2 routing_f_10.2 fcd_f_10.2" vType="DEFAULT_VEHTYPE" speedFactor="0.93" vaporized=""/>
    <tripinfo id="f_5.3" depart="108.00" departLane="25738780#0_0" departPos="5.10" departSpeed="0.00" departDelay="0.00" arrival="127.00" arrivalLane="26379240#0_1" arrivalPos="75.05" arrivalSpeed="12.29" duration="19.00" routeLength="186.78" waitingTime="0.00" waitingCount="0" stopTime="0.00" timeLoss="3.85" rerouteNo="0" devices="tripinfo_f_5.3 routing_f_5.3 fcd_f_5.3" vType="DEFAULT_VEHTYPE" speedFactor="1.18" vaporized=""/>
    <tripinfo id="f_8.3" depart="74.00" departLane="771466844#2_0" departPos="5.10" departSpeed="0.00" departDelay="2.00" arrival="142.00" arrivalLane="26379240#0_0" arrivalPos="75.05" arrivalSpeed="9.65" duration="68.00" routeLength="167.68" waitingTime="44.00" waitingCount="1" stopTime="0.00" timeLoss="51.57" rerouteNo="1" devices="tripinfo_f_8.3 routing_f_8.3 fcd_f_8.3" vType="DEFAULT_VEHTYPE" speedFactor="0.95" vaporized=""/>
    <tripinfo id="f_0.3" depart="108.00" departLane="-22277726#1_0" departPos="5.10" departSpeed="0.00" departDelay="0.00" arrival="143.00" arrivalLane="1082634545#0_0" arrivalPos="88.51" arrivalSpeed="11.02" duration="35.00" routeLength="179.95" waitingTime="10.00" waitingCount="1" stopTime="0.00" timeLoss="18.16" rerouteNo="0" devices="tripinfo_f_0.3 routing_f_0.3 fcd_f_0.3" vType="DEFAULT_VEHTYPE" speedFactor="1.02" vaporized=""/>
    <tripinfo id="f_7.3" depart="72.00" departLane="771466844#2_0" departPos="5.10" departSpeed="0.00" departDelay="0.00" arrival="144.00" arrivalLane="22277726#0_1" arrivalPos="83.47" arrivalSpeed="9.87" duration="72.00" routeLength="191.19" waitingTime="46.00" waitingCount="1" stopTime="0.00" timeLoss="53.14" rerouteNo="1" devices="tripinfo_f_7.3 routing_f_7.3 fcd_f_7.3" vType="DEFAULT_VEHTYPE" speedFactor="0.92" vaporized=""/>
    <tripinfo id="f_8.4" depart="97.00" departLane="771466844#2_0" departPos="5.10" departSpeed="0.00" departDelay="1.00" arrival="144.00" arrivalLane="26379240#0_0" arrivalPos="75.05" arrivalSpeed="12.63" duration="47.00" routeLength="167.68" waitingTime="23.00" waitingCount="1" stopTime="0.00" timeLoss="32.91" rerouteNo="1" devices="tripinfo_f_8.4 routing_f_8.4 fcd_f_8.4" vType="DEFAULT_VEHTYPE" speedFactor="1.17" vaporized=""/>
    <tripinfo id="f_9.2" depart="100.00" departLane="771466844#2_0" departPos="5.10" departSpeed="0.00" departDelay="4.00" arrival="144.00" arrivalLane="25738794#0_0" arrivalPos="90.88" arrivalSpeed="9.89" duration="44.00" routeLength="197.23" waitingTime="18.00" waitingCount="1" stopTime="0.00" timeLoss="26.13" rerouteNo="1" devices="tripinfo_f_9.2 routing_f_9.2 fcd_f_9.2" vType="DEFAULT_VEHTYPE" speedFactor="0.99" vaporized=""/>
    <tripinfo id="f_7.4" depart="96.00" departLane="771466844#2_0" departPos="5.10" departSpeed="0.00" departDelay="0.00" arrival="146.00" arrivalLane="22277726#0_1" arrivalPos="83.47" arrivalSpeed="10.29" duration="50.00" routeLength="191.19" waitingTime="25.00" waitingCount="1" stopTime="0.00" timeLoss="32.70" rerouteNo="1" devices="tripinfo_f_7.4 routing_f_7.4 fcd_f_7.4" vType="DEFAULT_VEHTYPE" speedFactor="1.01" vaporized=""/>
    <tripinfo id="f_13.1" depart="120.00" departLane="771466844#2_0" departPos="12.10" departSpeed="0.00" departDelay="0.00" arrival="148.00" arrivalLane="26379240#0_0" arrivalPos="75.05" arrivalSpeed="10.81" duration="28.00" routeLength="160.68" waitingTime="0.00" waitingCount="0" stopTime="0.00" timeLoss="13.09" rerouteNo="1" devices="tripinfo_f_13.1 routing_f_13.1 fcd_f_13.1" vType="pt_bus" speedFactor="1.00" vaporized=""/>
    <tripinfo id="f_7.5" depart="124.00" departLane="771466844#2_0" departPos="5.10" departSpeed="0.00" departDelay="4.00" arrival="149.00" arrivalLane="22277726#0_1" arrivalPos="83.47" arrivalSpeed="9.01" duration="25.00" routeLength="191.19" waitingTime="0.00" waitingCount="0" stopTime="0.00" timeLoss="5.36" rerouteNo="1" devices="tripinfo_f_7.5 routing_f_7.5 fcd_f_7.5" vType="DEFAULT_VEHTYPE" speedFactor="0.90" vaporized=""/>
    <tripinfo id="f_8.5" depart="126.00" departLane="771466844#2_0" departPos="5.10" departSpeed="0.00" departDelay="6.00" arrival="152.00" arrivalLane="26379240#0_0" arrivalPos="75.05" arrivalSpeed="11.24" duration="26.00" routeLength="167.68" waitingTime="0.00" waitingCount="0" stopTime="0.00" timeLoss="9.95" rerouteNo="1" devices="tripinfo_f_8.5 routing_f_8.5 fcd_f_8.5" vType="DEFAULT_VEHTYPE" speedFactor="1.03" vaporized=""/>
    <tripinfo id="f_7.6" depart="144.00" departLane="771466844#2_0" departPos="5.10" departSpeed="0.00" departDelay="0.00" arrival="167.00" arrivalLane="22277726#0_1" arrivalPos="83.47" arrivalSpeed="9.27" duration="23.00" routeLength="191.19" waitingTime="0.00" waitingCount="0" stopTime="0.00" timeLoss="3.16" rerouteNo="1" devices="tripinfo_f_7.6 routing_f_7.6 fcd_f_7.6" vType="DEFAULT_VEHTYPE" speedFactor="0.90" vaporized=""/>
    <tripinfo id="f_8.6" depart="146.00" departLane="771466844#2_0" departPos="5.10" departSpeed="0.00" departDelay="2.00" arrival="168.00" arrivalLane="26379240#0_0" arrivalPos="75.05" arrivalSpeed="9.15" duration="22.00" routeLength="167.68" waitingTime="0.00" waitingCount="0" stopTime="0.00" timeLoss="3.88" rerouteNo="1" devices="tripinfo_f_8.6 routing_f_8.6 fcd_f_8.6" vType="DEFAULT_VEHTYPE" speedFactor="0.88" vaporized=""/>
    <tripinfo id="f_9.3" depart="149.00" departLane="771466844#2_0" departPos="5.10" departSpeed="0.00" departDelay="5.00" arrival="174.00" arrivalLane="25738794#0_0" arrivalPos="90.88" arrivalSpeed="8.73" duration="25.00" routeLength="197.23" waitingTime="0.00" waitingCount="0" stopTime="0.00" timeLoss="3.39" rerouteNo="1" devices="tripinfo_f_9.3 routing_f_9.3 fcd_f_9.3" vType="DEFAULT_VEHTYPE" speedFactor="0.85" vaporized=""/>
    <tripinfo id="f_11.4" depart="99.00" departLane="-1022312150_0" departPos="5.10" departSpeed="0.00" departDelay="3.00" arrival="183.00" arrivalLane="22277726#0_0" arrivalPos="83.47" arrivalSpeed="12.14" duration="84.00" routeLength="182.12" waitingTime="62.00" waitingCount="1" stopTime="0.00" timeLoss="69.53" rerouteNo="0" devices="tripinfo_f_11.4 routing_f_11.4 fcd_f_11.4" vType="DEFAULT_VEHTYPE" speedFactor="1.18" vaporized=""/>
    <tripinfo id="f_2.3" depart="111.00" departLane="-22277726#1_0" departPos="5.10" departSpeed="0.00" departDelay="3.00" arrival="184.00" arrivalLane="26379240#0_0" arrivalPos="75.05" arrivalSpeed="9.79" duration="73.00" routeLength="182.72" waitingTime="47.00" waitingCount="1" stopTime="0.00" timeLoss="55.97" rerouteNo="0" devices="tripinfo_f_2.3 routing_f_2.3 fcd_f_2.3" vType="DEFAULT_VEHTYPE" speedFactor="0.97" vaporized=""/>
    <tripinfo id="f_11.5" depart="120.00" departLane="-1022312150_0" departPos="5.10" departSpeed="0.00" departDelay="0.00" arrival="184.00" arrivalLane="22277726#0_0" arrivalPos="83.47" arrivalSpeed="11.88" duration="64.00" routeLength="182.12" waitingTime="41.00" waitingCount="1" stopTime="0.00" timeLoss="49.19" rerouteNo="0" devices="tripinfo_f_11.5 routing_f_11.5 fcd_f_11.5" vType="DEFAULT_VEHTYPE" speedFactor="1.10" vaporized=""/>
    <tripinfo id="f_1.1" depart="120.00" departLane="-22277726#1_0" departPos="0.00" departSpeed="0.00" departDelay="0.00" arrival="186.00" arrivalLane="26379240#0_0" arrivalPos="75.05" arrivalSpeed="11.14" duration="66.00" routeLength="187.82" waitingTime="35.00" waitingCount="1" stopTime="0.00" timeLoss="48.94" rerouteNo="0" devices="tripinfo_f_1.1 routing_f_1.1 fcd_f_1.1" vType="pt_bus" speedFactor="1.00" vaporized=""/>
    <tripinfo id="f_2.4" depart="147.00" departLane="-22277726#1_0" departPos="5.10" departSpeed="0.00" departDelay="3.00" arrival="186.00" arrivalLane="26379240#0_1" arrivalPos="75.05" arrivalSpeed="10.58" duration="39.00" routeLength="182.72" waitingTime="13.00" waitingCount="1" stopTime="0.00" timeLoss="22.64" rerouteNo="0" devices="tripinfo_f_2.4 routing_f_2.4 fcd_f_2.4" vType="DEFAULT_VEHTYPE" speedFactor="1.04" vaporized=""/>
    <tripinfo id="f_11.6" depart="146.00" departLane="-1022312150_0" departPos="5.10" departSpeed="0.00" departDelay="2.00" arrival="187.00" arrivalLane="22277726#0_1" arrivalPos="83.47" arrivalSpeed="11.52" duration="41.00" routeLength="182.12" waitingTime="15.00" waitingCount="1" stopTime="0.00" timeLoss="24.37" rerouteNo="0" devices="tripinfo_f_11.6 routing_f_11.6 fcd_f_11.6" vType="DEFAULT_VEHTYPE" speedFactor="1.04" vaporized=""/>
    <tripinfo id="f_12.1" depart="124.00" departLane="-1022312150_0" departPos="12.10" departSpeed="0.00" departDelay="4.00" arrival="189.00" arrivalLane="22277726#0_0" arrivalPos="83.47" arrivalSpeed="11.03" duration="65.00" routeLength="175.12" waitingTime="35.00" waitingCount="1" stopTime="0.00" timeLoss="48.86" rerouteNo="0" devices="tripinfo_f_12.1 routing_f_12.1 fcd_f_12.1" vType="pt_bus" speedFactor="1.00" vaporized=""/>
    <tripinfo id="f_0.4" depart="144.00" departLane="-22277726#1_0" departPos="5.10" departSpeed="0.00" departDelay="0.00" arrival="189.00" arrivalLane="1082634545#0_0" arrivalPos="88.51" arrivalSpeed="9.83" duration="45.00" routeLength="179.95" waitingTime="17.00" waitingCount="1" stopTime="0.00" timeLoss="27.08" rerouteNo="0" devices="tripinfo_f_0.4 routing_f_0.4 fcd_f_0.4" vType="DEFAULT_VEHTYPE" speedFactor="0.96" vaporized=""/>
    <tripinfo id="f_10.3" depart="144.00" departLane="-1022312150_0" departPos="5.10" departSpeed="0.00" departDelay="0.00" arrival="190.00" arrivalLane="25738794#0_0" arrivalPos="90.88" arrivalSpeed="12.07" duration="46.00" routeLength="173.31" waitingTime="21.00" waitingCount="1" stopTime="0.00" timeLoss="30.75" rerouteNo="0" devices="tripinfo_f_10.3 routing_f_10.3 fcd_f_10.3" vType="DEFAULT_VEHTYPE" speedFactor="1.09" vaporized=""/>
    <tripinfo id="f_11.7" depart="168.00" departLane="-1022312150_0" departPos="5.10" departSpeed="0.00" departDelay="0.00" arrival="191.00" arrivalLane="22277726#0_1" arrivalPos="83.47" arrivalSpeed="8.78" duration="23.00" routeLength="182.12" waitingTime="0.00" waitingCount="0" stopTime="0.00" timeLoss="3.65" rerouteNo="0" devices="tripinfo_f_11.7 routing_f_11.7 fcd_f_11.7" vType="DEFAULT_VEHTYPE" speedFactor="0.85" vaporized=""/>
    <tripinfo id="f_4.3" depart="144.00" departLane="25738780#0_0" departPos="5.10" departSpeed="0.00" departDelay="0.00" arrival="196.00" arrivalLane="1082634545#0_0" arrivalPos="88.51" arrivalSpeed="11.94" duration="52.00" routeLength="198.76" waitingTime="27.00" waitingCount="1" stopTime="0.00" timeLoss="35.05" rerouteNo="0" devices="tripinfo_f_4.3 routing_f_4.3 fcd_f_4.3" vType="DEFAULT_VEHTYPE" speedFactor="1.09" vaporized=""/>
    <tripinfo id="f_6.1" depart="120.00" departLane="25738780#0_0" departPos="12.10" departSpeed="0.00" departDelay="0.00" arrival="198.00" arrivalLane="26379240#0_1" arrivalPos="75.05" arrivalSpeed="10.62" duration="78.00" routeLength="179.78" waitingTime="48.00" waitingCount="1" stopTime="0.00" timeLoss="61.39" rerouteNo="0" devices="tripinfo_f_6.1 routing_f_6.1 fcd_f_6.1" vType="pt_bus" speedFactor="1.00" vaporized=""/>
    <tripinfo id="f_5.4" depart="147.00" departLane="25738780#0_0" departPos="5.10" departSpeed="0.00" departDelay="3.00" arrival="201.00" arrivalLane="26379240#0_1" arrivalPos="75.05" arrivalSpeed="10.59" duration="54.00" routeLength="186.78" waitingTime="25.00" waitingCount="1" stopTime="0.00" timeLoss="36.50" rerouteNo="0" devices="tripinfo_f_5.4 routing_f_5.4 fcd_f_5.4" vType="DEFAULT_VEHTYPE" speedFactor="1.00" vaporized=""/>
    <tripinfo id="f_3.2" depart="180.00" departLane="25738780#0_0" departPos="5.10" departSpeed="0.00" departDelay="0.00" arrival="201.00" arrivalLane="22277726#0_0" arrivalPos="83.47" arrivalSpeed="10.98" duration="21.00" routeLength="180.02" waitingTime="0.00" waitingCount="0" stopTime="0.00" timeLoss="3.69" rerouteNo="0" devices="tripinfo_f_3.2 routing_f_3.2 fcd_f_3.2" vType="DEFAULT_VEHTYPE" speedFactor="1.00" vaporized=""/>
    <tripinfo id="f_5.5" depart="183.00" departLane="25738780#0_0" departPos="5.10" departSpeed="0.00" departDelay="3.00" arrival="206.00" arrivalLane="26379240#0_1" arrivalPos="75.05" arrivalSpeed="9.86" duration="23.00" routeLength="186.78" waitingTime="0.00" waitingCount="0" stopTime="0.00" timeLoss="3.50" rerouteNo="0" devices="tripinfo_f_5.5 routing_f_5.5 fcd_f_5.5" vType="DEFAULT_VEHTYPE" speedFactor="0.90" vaporized=""/>
    <tripinfo id="f_10.4" depart="192.00" departLane="-1022312150_0" departPos="5.10" departSpeed="0.00" departDelay="0.00" arrival="210.00" arrivalLane="25738794#0_0" arrivalPos="90.88" arrivalSpeed="11.88" duration="18.00" routeLength="173.31" waitingTime="0.00" waitingCount="0" stopTime="0.00" timeLoss="3.64" rerouteNo="0" devices="tripinfo_f_10.4 routing_f_10.4 fcd_f_10.4" vType="DEFAULT_VEHTYPE" speedFactor="1.14" vaporized=""/>
    <tripinfo id="f_4.4" depart="192.00" departLane="25738780#0_0" departPos="5.10" departSpeed="0.00" departDelay="0.00" arrival="214.00" arrivalLane="1082634545#0_0" arrivalPos="88.51" arrivalSpeed="9.91" duration="22.00" routeLength="198.76" waitingTime="0.00" waitingCount="0" stopTime="0.00" timeLoss="3.22" rerouteNo="0" devices="tripinfo_f_4.4 routing_f_4.4 fcd_f_4.4" vType="DEFAULT_VEHTYPE" speedFactor="0.97" vaporized=""/>
    <tripinfo id="f_8.7" depart="170.00" departLane="771466844#2_0" departPos="5.10" departSpeed="0.00" departDelay="2.00" arrival="234.00" arrivalLane="26379240#0_0" arrivalPos="75.05" arrivalSpeed="10.41" duration="64.00" routeLength="167.68" waitingTime="40.00" waitingCount="1" stopTime="0.00" timeLoss="47.97" rerouteNo="1" devices="tripinfo_f_8.7 routing_f_8.7 fcd_f_8.7" vType="DEFAULT_VEHTYPE" speedFactor="1.02" vaporized=""/>
    <tripinfo id="f_7.7" depart="168.00" departLane="771466844#2_0" departPos="5.10" departSpeed="0.00" departDelay="0.00" arrival="235.00" arrivalLane="22277726#0_1" arrivalPos="83.47" arrivalSpeed="12.04" duration="67.00" routeLength="191.19" waitingTime="43.00" waitingCount="1" stopTime="0.00" timeLoss="51.48" rerouteNo="1" devices="tripinfo_f_7.7 routing_f_7.7 fcd_f_7.7" vType="DEFAULT_VEHTYPE" speedFactor="1.17" vaporized=""/>
    <tripinfo id="f_0.5" depart="180.00" departLane="-22277726#1_0" departPos="5.10" departSpeed="0.00" departDelay="0.00" arrival="235.00" arrivalLane="1082634545#0_0" arrivalPos="88.51" arrivalSpeed="12.14" duration="55.00" routeLength="179.95" waitingTime="31.00" waitingCount="1" stopTime="0.00" timeLoss="39.76" rerouteNo="0" devices="tripinfo_f_0.5 routing_f_0.5 fcd_f_0.5" vType="DEFAULT_VEHTYPE" speedFactor="1.10" vaporized=""/>
    <tripinfo id="f_8.8" depart="194.00" departLane="771466844#2_0" departPos="5.10" departSpeed="0.00" departDelay="2.00" arrival="236.00" arrivalLane="26379240#0_0" arrivalPos="75.05" arrivalSpeed="11.29" duration="42.00" routeLength="167.68" waitingTime="18.00" waitingCount="1" stopTime="0.00" timeLoss="27.13" rerouteNo="1" devices="tripinfo_f_8.8 routing_f_8.8 fcd_f_8.8" vType="DEFAULT_VEHTYPE" speedFactor="1.12" vaporized=""/>