<?xml version="1.0" encoding="UTF-8"?>

<!-- generated on 2025-03-10 18:19:16 by Eclipse SUMO sumo Version 1.20.0
<configuration xmlns:xsi="http://www.w3.org/2001/XMLSchema-instance" xsi:noNamespaceSchemaLocation="http://sumo.dlr.de/xsd/sumoConfiguration.xsd">

    <input>
        <net-file value="C:\Users\Anson\OneDrive\002_UCB\04_ENGIN296\ai-for-traffic\2025-03-10-18-19-13\osm.net.xml.gz"/>
        <route-files value="C:\Users\Anson\OneDrive\002_UCB\04_ENGIN296\ai-for-traffic\2025-03-10-18-19-13\trips.trips.xml"/>
        <additional-files value="C:\Users\Anson\OneDrive\002_UCB\04_ENGIN296\ai-for-traffic\2025-03-10-18-19-13\osm_stops.add.xml"/>
    </input>

    <output>
        <vehroute-output value="C:\Users\Anson\OneDrive\002_UCB\04_ENGIN296\ai-for-traffic\2025-03-10-18-19-13\vehroutes.xml"/>
        <stop-output value="C:\Users\Anson\OneDrive\002_UCB\04_ENGIN296\ai-for-traffic\2025-03-10-18-19-13\stopinfos.xml"/>
    </output>

    <time>
        <begin value="0.0"/>
    </time>

    <processing>
        <ignore-route-errors value="true"/>
    </processing>

    <routing>
        <device.rerouting.adaptation-interval value="0"/>
    </routing>

    <report>
        <aggregate-warnings value="5"/>
        <error-log value="C:\Users\Anson\OneDrive\002_UCB\04_ENGIN296\ai-for-traffic\2025-03-10-18-19-13\trips.trips.xml.errorlog"/>
        <no-step-log value="true"/>
    </report>

</configuration>
-->

<routes xmlns:xsi="http://www.w3.org/2001/XMLSchema-instance" xsi:noNamespaceSchemaLocation="http://sumo.dlr.de/xsd/routes_file.xsd">
    <vehicle id="0_bus_51B:0" type="pt_bus" depart="15.00" departLane="0" arrival="84.00">
        <route edges="25738780#0 1082634545#0 195604807#1"/>
        <stop busStop="6561896531" duration="30.00"/>
    </vehicle>

    <vehicle id="1_bus_51B:1" type="pt_bus" depart="15.00" departLane="0" arrival="85.00">
        <route edges="771466844#0 771466844#2 292218768#0 26379240#0"/>
        <stop busStop="6561896530" duration="30.00"/>
    </vehicle>

    <vehicle id="2_bus_52:0" type="pt_bus" depart="20.00" departLane="0" arrival="92.00">
        <route edges="771466844#0 771466844#2 292218768#0 25738794#0"/>
        <stop busStop="6561896529" duration="30.00"/>
    </vehicle>

    <vehicle id="3_bus_52:1" type="pt_bus" depart="52.00" departLane="0" arrival="135.00">
        <route edges="25738780#0 1082634545#0 195604807#1"/>
        <stop busStop="6561896531" duration="30.00"/>
    </vehicle>

    <vehicle id="4_bus_18:0" type="pt_bus" depart="119.00" departLane="0" arrival="179.00">
        <route edges="-22277726#1 26379240#0"/>
        <stop busStop="-6561896527" duration="30.00"/>
    </vehicle>

    <vehicle id="5_bus_18:1" type="pt_bus" depart="131.00" departLane="0" arrival="192.00">
        <route edges="-1022312150 22277726#0"/>
        <stop busStop="6561896528" duration="30.00"/>
    </vehicle>

    <vehicle id="6_bus_51B:2" type="pt_bus" depart="132.00" departLane="0" arrival="210.00">
        <route edges="25738780#0 1082634545#0 195604807#1"/>
        <stop busStop="6561896531" duration="30.00"/>
    </vehicle>

    <vehicle id="7_bus_51B:3" type="pt_bus" depart="133.00" departLane="0" arrival="210.00">
        <route edges="771466844#0 771466844#2 292218768#0 26379240#0"/>
        <stop busStop="6561896530" duration="30.00"/>
    </vehicle>

    <vehicle id="8_bus_88:0" type="pt_bus" depart="165.00" departLane="0" arrival="262.00">
        <route edges="771466844#0 771466844#2 292218768#0 26379240#0"/>
        <stop busStop="6561896530" duration="30.00"/>
    </vehicle>

    <vehicle id="9_bus_7:0" type="pt_bus" depart="253.00" departLane="0" arrival="326.00">
        <route edges="-22277726#1 26379240#0"/>
        <stop busStop="-6561896527" duration="30.00"/>
    </vehicle>

    <vehicle id="10_bus_7:1" type="pt_bus" depart="303.00" departLane="0" arrival="362.00">
        <route edges="-1022312150 22277726#0"/>
        <stop busStop="6561896528" duration="30.00"/>
    </vehicle>

    <vehicle id="11_bus_800:0" type="pt_bus" depart="326.00" departLane="0" arrival="408.00">
        <route edges="771466844#0 771466844#2 292218768#0 26379240#0"/>
        <stop busStop="6561896530" duration="30.00"/>
    </vehicle>

    <vehicle id="13_bus_79:0" type="pt_bus" depart="389.00" departLane="0" arrival="459.00">
        <route edges="771466844#0 771466844#2 292218768#0 26379240#0"/>
        <stop busStop="6561896530" duration="30.00"/>
    </vehicle>

    <vehicle id="12_bus_F:0" type="pt_bus" depart="383.00" departLane="0" arrival="464.00">
        <route edges="-1022312150 22277726#0"/>
        <stop busStop="6561896528" duration="30.00"/>
    </vehicle>

    <vehicle id="14_bus_79:1" type="pt_bus" depart="406.00" departLane="0" arrival="480.00">
        <route edges="25738780#0 1082634545#0 195604807#1"/>
        <stop busStop="6561896531" duration="30.00"/>
    </vehicle>

    <vehicle id="15_bus_N:0" type="pt_bus" depart="441.00" departLane="0" arrival="503.00">
        <route edges="25738780#0 22277726#0"/>
        <stop busStop="6561896528" duration="30.00"/>
    </vehicle>

    <vehicle id="16_bus_800:1" type="pt_bus" depart="535.00" departLane="1" arrival="621.00">
        <route edges="-1022312150 1082634545#0 195604807#1"/>
        <stop busStop="6561896531" duration="30.00"/>
    </vehicle>

</routes>
